<?xml version="1.0" encoding="UTF-8"?>
<UPF version="2.0.1">
  <PP_INFO><![CDATA[
Generated using "atomic" code by A. Dal Corso  v.6.3MaX
Author: ADC
Generation date: 22Oct2025
Pseudopotential type: USPP
Element: Ac
Functional: PBESOL
    Suggested minimum cutoff for wavefunctions:  48. Ry
    Suggested minimum cutoff for charge density: 328. Ry
    The Pseudo was generated with a Scalar-Relativistic Calculation
    Local Potential by smoothing AE potential with Bessel fncs, cutoff radius:   2.2000
    Pseudopotential contains additional information for GIPAW reconstruction.
    Valence configuration:
    nl pn  l   occ       Rcut    Rcut US       E pseu
    6S  1  0  2.00      1.400      1.700    -2.987491
    7S  2  0  2.00      1.400      1.700    -0.292081
    6P  2  1  6.00      1.600      2.200    -1.480180
    7P  3  1  0.00      1.600      2.200    -0.085577
    6D  3  2  1.00      1.600      2.200    -0.166807
    Generation configuration:
    6S  1  0  2.00      1.400      1.700    -2.987543
    7S  2  0  2.00      1.400      1.700    -0.292091
    6P  2  1  6.00      1.600      2.200    -1.480214
    7P  3  1  0.00      1.600      2.200    -0.085581
    6D  3  2  1.00      1.600      2.200    -0.166823
    6D  3  2 -2.00      1.600      2.200     4.800000
    5F  4  3  0.00      1.300      1.800     0.100000
    5F  4  3 -2.00      1.300      1.800    -0.700000
    Pseudization used: troullier-martins
]]>
    <PP_INPUTFILE><![CDATA[
 &input
   title='Ac',
   zed=89.0,
   rel=1,
   config='[Rn] 6d1.0 7s2.0 7p0. 5f0',
   iswitch=3,
   dft='PBESOL'
 /
 &inputp
   lpaw=.false.,
   pseudotype=3,
   file_pseudopw='Ac.us.pbesol.z_11.ld1.psl.v1.0.0-high.upf',
   author='ADC',
   lloc=-1,
   rcloc=2.2,
   which_augfun='PSQ',
   rmatch_augfun_nc=.true.,
   nlcc=.true.,
   new_core_ps=.true.,
   rcore=1.5,
   tm=.true.
 /
8
6S  1  0  2.00  0.00  1.40  1.70  0.0
7S  2  0  2.00  0.00  1.40  1.70  0.0
6P  2  1  6.00  0.00  1.60  2.20  0.0
7P  3  1  0.00  0.00  1.60  2.20  0.0
6D  3  2  1.00  0.00  1.60  2.20  0.0
6D  3  2 -2.00  4.80  1.60  2.20  0.0
5F  4  3  0.00  0.10  1.30  1.80  0.0
5F  4  3 -2.00 -0.70  1.30  1.80  0.0
]]></PP_INPUTFILE>
  </PP_INFO>
  <!--
 END OF HUMAN READABLE SECTION 
-->
  <PP_HEADER generated="Generated using &quot;atomic&quot; code by A. Dal Corso  v.6.3MaX" author="ADC" date="22Oct2025" comment="" element="Ac" pseudo_type="USPP" relativistic="scalar" is_ultrasoft="true" is_paw="false" is_coulomb="false" has_so="false" has_wfc="false" has_gipaw="true" paw_as_gipaw="false" core_correction="true" functional="PBESOL" z_valence="1.100000000000e1" total_psenergy="-9.349267163148e1" wfc_cutoff="4.842248779795e1" rho_cutoff="3.281671218769e2" l_max="3" l_max_rho="6" l_local="-1" mesh_size="1289" number_of_wfc="5" number_of_proj="8"/>
  <PP_MESH dx="1.250000000000e-2" mesh="1289" xmin="-7.000000000000e0" rmax="1.000000000000e2" zmesh="8.900000000000e1">
    <PP_R>
      1.024586478151142e-5 1.037474189515755e-5 1.050524008333238e-5 1.063737973664330e-5
      1.077118150218000e-5 1.090666628674055e-5 1.104385526009819e-5 1.118276985830911e-5
      1.132343178706192e-5 1.146586302506915e-5 1.161008582750154e-5 1.175612272946538e-5
      1.190399654952371e-5 1.205373039326176e-5 1.220534765689728e-5 1.235887203093616e-5
      1.251432750387419e-5 1.267173836594531e-5 1.283112921291694e-5 1.299252494993324e-5
      1.315595079540645e-5 1.332143228495745e-5 1.348899527540562e-5 1.365866594880915e-5
      1.383047081655597e-5 1.400443672350618e-5 1.418059085218668e-5 1.435896072703847e-5
      1.453957421871739e-5 1.472245954844899e-5 1.490764529243811e-5 1.509516038633401e-5
      1.528503412975162e-5 1.547729619084963e-5 1.567197661096628e-5 1.586910580931328e-5
      1.606871458772893e-5 1.627083413549096e-5 1.647549603418992e-5 1.668273226266390e-5
      1.689257520199519e-5 1.710505764057002e-5 1.732021277920169e-5 1.753807423631834e-5
      1.775867605321592e-5 1.798205269937713e-5 1.820823907785738e-5 1.843727053073849e-5
      1.866918284465094e-5 1.890401225636563e-5 1.914179545845589e-5 1.938256960503081e-5
      1.962637231754067e-5 1.987324169065529e-5 2.012321629821651e-5 2.037633519926534e-5
      2.063263794414502e-5 2.089216458068091e-5 2.115495566043795e-5 2.142105224505704e-5
      2.169049591267089e-5 2.196332876440075e-5 2.223959343093480e-5 2.251933307918920e-5
      2.280259141905319e-5 2.308941271021864e-5 2.337984176909583e-5 2.367392397581611e-5
      2.397170528132256e-5 2.427323221455005e-5 2.457855188969534e-5 2.488771201357884e-5
      2.520076089309891e-5 2.551774744277985e-5 2.583872119241502e-5 2.616373229480577e-5
      2.649283153359812e-5 2.682607033121769e-5 2.716350075690453e-5 2.750517553484925e-5
      2.785114805243100e-5 2.820147236855953e-5 2.855620322212200e-5 2.891539604053595e-5
      2.927910694841009e-5 2.964739277631373e-5 3.002031106965675e-5 3.039792009768120e-5
      3.078027886256594e-5 3.116744710864594e-5 3.155948533174733e-5 3.195645478864009e-5
      3.235841750660947e-5 3.276543629314795e-5 3.317757474576906e-5 3.359489726194450e-5
      3.401746904916647e-5 3.444535613513644e-5 3.487862537808212e-5 3.531734447720428e-5
      3.576158198325468e-5 3.621140730924749e-5 3.666689074130503e-5 3.712810344964025e-5
      3.759511749967721e-5 3.806800586331136e-5 3.854684243031162e-5 3.903170201986577e-5
      3.952266039227110e-5 4.001979426077224e-5 4.052318130354753e-5 4.103290017584655e-5
      4.154903052228014e-5 4.207165298926494e-5 4.260084923762481e-5 4.313670195535014e-5
      4.367929487051832e-5 4.422871276437622e-5 4.478504148458754e-5 4.534836795864672e-5
      4.591878020746142e-5 4.649636735910603e-5 4.708121966274809e-5 4.767342850274989e-5
      4.827308641294763e-5 4.888028709110976e-5 4.949512541357760e-5 5.011769745008991e-5
      5.074810047879401e-5 5.138643300144576e-5 5.203279475880052e-5 5.268728674619788e-5
      5.335001122934245e-5 5.402107176028298e-5 5.470057319359284e-5 5.538862170275340e-5
      5.608532479674401e-5 5.679079133684061e-5 5.750513155362530e-5 5.822845706421040e-5
      5.896088088967848e-5 5.970251747274242e-5 6.045348269562719e-5 6.121389389817669e-5
      6.198386989618844e-5 6.276353099997865e-5 6.355299903318099e-5 6.435239735178186e-5
      6.516185086339483e-5 6.598148604677812e-5 6.681143097159658e-5 6.765181531843325e-5
      6.850277039905212e-5 6.936442917691576e-5 7.023692628796137e-5 7.112039806163760e-5
      7.201498254220656e-5 7.292081951031335e-5 7.383805050482710e-5 7.476681884495701e-5
      7.570726965264569e-5 7.665954987524525e-5 7.762380830847791e-5 7.860019561968551e-5
      7.958886437137219e-5 8.058996904504157e-5 8.160366606533586e-5 8.263011382447679e-5
      8.366947270701504e-5 8.472190511489075e-5 8.578757549280857e-5 8.686665035393338e-5
      8.795929830590756e-5 8.906569007719655e-5 9.018599854376586e-5 9.132039875609227e-5
      9.246906796651720e-5 9.363218565694165e-5 9.480993356687112e-5 9.600249572181287e-5
      9.721005846202960e-5 9.843281047165648e-5 9.967094280818268e-5 1.009246489323047e-4
      1.021941247381553e-4 1.034795685839117e-4 1.047811813227902e-4 1.060991663344293e-4
      1.074337295566686e-4 1.087850795177269e-4 1.101534273687846e-4 1.115389869169777e-4
      1.129419746588043e-4 1.143626098139536e-4 1.158011143595590e-4 1.172577130648821e-4
      1.187326335264343e-4 1.202261062035385e-4 1.217383644543388e-4 1.232696445722639e-4
      1.248201858229473e-4 1.263902304816142e-4 1.279800238709369e-4 1.295898143993665e-4
      1.312198535999489e-4 1.328703961696249e-4 1.345417000090295e-4 1.362340262627876e-4
      1.379476393603195e-4 1.396828070571583e-4 1.414398004767865e-4 1.432188941530008e-4
      1.450203660728075e-4 1.468444977198593e-4 1.486915741184375e-4 1.505618838779869e-4
      1.524557192382127e-4 1.543733761147432e-4 1.563151541453665e-4 1.582813567368509e-4
      1.602722911123512e-4 1.622882683594143e-4 1.643296034785868e-4 1.663966154326337e-4
      1.684896271963788e-4 1.706089658071679e-4 1.727549624159712e-4 1.749279523391246e-4
      1.771282751107246e-4 1.793562745356811e-4 1.816122987434368e-4 1.838967002423644e-4
      1.862098359748456e-4 1.885520673730445e-4 1.909237604153829e-4 1.933252856837234e-4
      1.957570184212755e-4 1.982193385912265e-4 2.007126309361128e-4 2.032372850379361e-4
      2.057936953790357e-4 2.083822614037291e-4 2.110033875807237e-4 2.136574834663175e-4
      2.163449637683925e-4 2.190662484112134e-4 2.218217626010425e-4 2.246119368925779e-4
      2.274372072562291e-4 2.302980151462388e-4 2.331948075696601e-4 2.361280371562026e-4
      2.390981622289570e-4 2.421056468760087e-4 2.451509610229525e-4 2.482345805063196e-4
      2.513569871479282e-4 2.545186688301682e-4 2.577201195722352e-4 2.609618396073210e-4
      2.642443354607765e-4 2.675681200292571e-4 2.709337126608637e-4 2.743416392362925e-4
      2.777924322510045e-4 2.812866308984286e-4 2.848247811542128e-4 2.884074358615329e-4
      2.920351548174758e-4 2.957085048605091e-4 2.994280599590504e-4 3.031944013011515e-4
      3.070081173853097e-4 3.108698041124222e-4 3.147800648788968e-4 3.187395106709337e-4
      3.227487601599937e-4 3.268084397994660e-4 3.309191839225539e-4 3.350816348413900e-4
      3.392964429473988e-4 3.435642668129224e-4 3.478857732941224e-4 3.522616376351785e-4
      3.566925435737972e-4 3.611791834480457e-4 3.657222583045330e-4 3.703224780079479e-4
      3.749805613519785e-4 3.796972361716242e-4 3.844732394569217e-4 3.893093174681014e-4
      3.942062258521915e-4 3.991647297610895e-4 4.041856039711199e-4 4.092696330040924e-4
      4.144176112498879e-4 4.196303430905800e-4 4.249086430261245e-4 4.302533358016253e-4
      4.356652565362023e-4 4.411452508534811e-4 4.466941750137226e-4 4.523128960476164e-4
      4.580022918917553e-4 4.637632515258151e-4 4.695966751114597e-4 4.755034741329923e-4
      4.814845715397774e-4 4.875409018904536e-4 4.936734114989599e-4 4.998830585823991e-4
      5.061708134107620e-4 5.125376584585327e-4 5.189845885582036e-4 5.255126110557188e-4
      5.321227459678756e-4 5.388160261417020e-4 5.455934974158424e-4 5.524562187839727e-4
      5.594052625602690e-4 5.664417145469592e-4 5.735666742039822e-4 5.807812548207798e-4
      5.880865836902514e-4 5.954838022848966e-4 6.029740664351700e-4 6.105585465100843e-4
      6.182384276000815e-4 6.260149097022066e-4 6.338892079076107e-4 6.418625525914077e-4
      6.499361896049267e-4 6.581113804703770e-4 6.663894025779631e-4 6.747715493854825e-4
      6.832591306204266e-4 6.918534724846319e-4 7.005559178614995e-4 7.093678265258245e-4
      7.182905753562647e-4 7.273255585504781e-4 7.364741878429704e-4 7.457378927256814e-4
      7.551181206713455e-4 7.646163373596650e-4 7.742340269063213e-4 7.839726920948726e-4
      7.938338546115686e-4 8.038190552831148e-4 8.139298543174322e-4 8.241678315474397e-4
      8.345345866779091e-4 8.450317395354205e-4 8.556609303214644e-4 8.664238198687270e-4
      8.773220899005974e-4 8.883574432939403e-4 8.995316043451751e-4 9.108463190396993e-4
      9.223033553247056e-4 9.339045033854221e-4 9.456515759248358e-4 9.575464084469312e-4
      9.695908595434886e-4 9.817868111844987e-4 9.941361690122170e-4 1.006640862638929e-3
      1.019302845948456e-3 1.032124097401448e-3 1.045106620344534e-3 1.058252443323334e-3
      1.071563620399434e-3 1.085042231471336e-3 1.098690382599439e-3 1.112510206335127e-3
      1.126503862053975e-3 1.140673536293158e-3 1.155021443093106e-3 1.169549824343445e-3
      1.184260950133307e-3 1.199157119106025e-3 1.214240658818307e-3 1.229513926103921e-3
      1.244979307441955e-3 1.260639219329705e-3 1.276496108660267e-3 1.292552453104859e-3
      1.308810761499966e-3 1.325273574239355e-3 1.341943463671007e-3 1.358823034499064e-3
      1.375914924190808e-3 1.393221803388778e-3 1.410746376328060e-3 1.428491381258827e-3
      1.446459590874205e-3 1.464653812743502e-3 1.483076889750902e-3 1.501731700539669e-3
      1.520621159961940e-3 1.539748219534185e-3 1.559115867898374e-3 1.578727131288968e-3
      1.598585074005772e-3 1.618692798892733e-3 1.639053447822780e-3 1.659670202188729e-3
      1.680546283400395e-3 1.701684953387940e-3 1.723089515111556e-3 1.744763313077562e-3
      1.766709733860985e-3 1.788932206634723e-3 1.811434203705358e-3 1.834219241055712e-3
      1.857290878894231e-3 1.880652722211265e-3 1.904308421342362e-3 1.928261672538639e-3
      1.952516218544327e-3 1.977075849181590e-3 2.001944401942680e-3 2.027125762589560e-3
      2.052623865761065e-3 2.078442695587688e-3 2.104586286314124e-3 2.131058722929610e-3
      2.157864141806227e-3 2.185006731345210e-3 2.212490732631394e-3 2.240320440095901e-3
      2.268500202187140e-3 2.297034422050271e-3 2.325927558215200e-3 2.355184125293234e-3
      2.384808694682507e-3 2.414805895282254e-3 2.445180414216101e-3 2.475936997564427e-3
      2.507080451105953e-3 2.538615641068662e-3 2.570547494890140e-3 2.602881001987516e-3
      2.635621214537054e-3 2.668773248263574e-3 2.702342283239800e-3 2.736333564695739e-3
      2.770752403838276e-3 2.805604178681053e-3 2.840894334884792e-3 2.876628386608203e-3
      2.912811917369569e-3 2.949450580919184e-3 2.986550102122773e-3 3.024116277855999e-3
      3.062154977910254e-3 3.100672145909811e-3 3.139673800240534e-3 3.179166034990260e-3
      3.219155020901012e-3 3.259647006333206e-3 3.300648318241943e-3 3.342165363165627e-3
      3.384204628226992e-3 3.426772682146733e-3 3.469876176269886e-3 3.513521845605100e-3
      3.557716509877004e-3 3.602467074591808e-3 3.647780532116289e-3 3.693663962770384e-3
      3.740124535933480e-3 3.787169511164657e-3 3.834806239337010e-3 3.883042163786230e-3
      3.931884821473657e-3 3.981341844163919e-3 4.031420959617435e-3 4.082129992797881e-3
      4.133476867094857e-3 4.185469605561945e-3 4.238116332170304e-3 4.291425273078080e-3
      4.345404757915747e-3 4.400063221087629e-3 4.455409203089808e-3 4.511451351844570e-3
      4.568198424051678e-3 4.625659286556616e-3 4.683842917736048e-3 4.742758408900737e-3
      4.802414965716032e-3 4.862821909640309e-3 4.923988679381456e-3 4.985924832371684e-3
      5.048640046260918e-3 5.112144120428917e-3 5.176446977516473e-3 5.241558664975829e-3
      5.307489356640614e-3 5.374249354315552e-3 5.441849089386097e-3 5.510299124448386e-3
      5.579610154959661e-3 5.649793010909448e-3 5.720858658511789e-3 5.792818201918701e-3
      5.865682884955239e-3 5.939464092876379e-3 6.014173354145958e-3 6.089822342238059e-3
      6.166422877460973e-3 6.243986928804176e-3 6.322526615808495e-3 6.402054210459809e-3
      6.482582139106594e-3 6.564122984401529e-3 6.646689487267588e-3 6.730294548888828e-3
      6.814951232726218e-3 6.900672766558853e-3 6.987472544550791e-3 7.075364129343936e-3
      7.164361254177233e-3 7.254477825032495e-3 7.345727922807274e-3 7.438125805514990e-3
      7.531685910512806e-3 7.626422856757470e-3 7.722351447089576e-3 7.819486670546540e-3
      7.917843704704648e-3 8.017437918050595e-3 8.118284872382839e-3 8.220400325243167e-3
      8.323800232378852e-3 8.428500750235754e-3 8.534518238482796e-3 8.641869262568214e-3
      8.750570596307920e-3 8.860639224506482e-3 8.972092345610980e-3 9.084947374398347e-3
      9.199221944696433e-3 9.314933912139331e-3 9.432101356957387e-3 9.550742586802230e-3
      9.670876139607397e-3 9.792520786484927e-3 9.915695534658376e-3 1.004041963043276e-2
      1.016671256220180e-2 1.029459406349301e-2 1.042408411605116e-2 1.055520295296040e-2
      1.068797106180578e-2 1.082240918787441e-2 1.095853833739700e-2 1.109637978083014e-2
      1.123595505617978e-2 1.137728597236668e-2 1.152039461263404e-2 1.166530333799804e-2
      1.181203479074185e-2 1.196061189795347e-2 1.211105787510822e-2 1.226339622969609e-2
      1.241765076489492e-2 1.257384558328968e-2 1.273200509063850e-2 1.289215399968621e-2
      1.305431733402566e-2 1.321852043200777e-2 1.338478895070066e-2 1.355314886989866e-2
      1.372362649618169e-2 1.389624846702568e-2 1.407104175496477e-2 1.424803367180585e-2
      1.442725187289597e-2 1.460872436144372e-2 1.479247949289463e-2 1.497854597936184e-2
      1.516695289411240e-2 1.535772967611007e-2 1.555090613461519e-2 1.574651245384240e-2
      1.594457919767706e-2 1.614513731445085e-2 1.634821814177754e-2 1.655385341144961e-2
      1.676207525439630e-2 1.697291620570419e-2 1.718640920970089e-2 1.740258762510262e-2
      1.762148523022662e-2 1.784313622826903e-2 1.806757525264926e-2 1.829483737242148e-2
      1.852495809775425e-2 1.875797338547913e-2 1.899391964470890e-2 1.923283374252658e-2
      1.947475300974603e-2 1.971971524674493e-2 1.996775872937122e-2 2.021892221492370e-2
      2.047324494820798e-2 2.073076666766855e-2 2.099152761159800e-2 2.125556852442438e-2
      2.152293066307749e-2 2.179365580343545e-2 2.206778624685223e-2 2.234536482676733e-2
      2.262643491539862e-2 2.291104043051928e-2 2.319922584232009e-2 2.349103618035794e-2
      2.378651704059185e-2 2.408571459250741e-2 2.438867558633082e-2 2.469544736033374e-2
      2.500607784822999e-2 2.532061558666527e-2 2.563910972280117e-2 2.596161002199444e-2
      2.628816687557294e-2 2.661883130870946e-2 2.695365498839436e-2 2.729269023150886e-2
      2.763599001299944e-2 2.798360797415542e-2 2.833559843099044e-2 2.869201638272951e-2
      2.905291752040278e-2 2.941835823554722e-2 2.978839562901807e-2 3.016308751991092e-2
      3.054249245459601e-2 3.092666971586637e-2 3.131567933220058e-2 3.170958208714269e-2
      3.210843952879961e-2 3.251231397945799e-2 3.292126854532253e-2 3.333536712637605e-2
      3.375467442636441e-2 3.417925596290636e-2 3.460917807773068e-2 3.504450794704264e-2
      3.548531359201987e-2 3.593166388944129e-2 3.638362858244903e-2 3.684127829144577e-2
      3.730468452512979e-2 3.777391969166776e-2 3.824905711000919e-2 3.873017102134244e-2
      3.921733660069485e-2 3.971062996867947e-2 4.021012820338854e-2 4.071590935243754e-2
      4.122805244516008e-2 4.174663750495623e-2 4.227174556179679e-2 4.280345866488384e-2
      4.334185989547161e-2 4.388703337984781e-2 4.443906430247840e-2 4.499803891931831e-2
      4.556404457128850e-2 4.613716969792372e-2 4.671750385119113e-2 4.730513770948270e-2
      4.790016309178452e-2 4.850267297202297e-2 4.911276149359277e-2 4.973052398406671e-2
      5.035605697009061e-2 5.098945819246637e-2 5.163082662142347e-2 5.228026247208391e-2
      5.293786722012072e-2 5.360374361761351e-2 5.427799570910431e-2 5.496072884785400e-2
      5.565204971230465e-2 5.635206632274789e-2 5.706088805820317e-2 5.777862567350890e-2
      5.850539131662753e-2 5.924129854616954e-2 5.998646234913685e-2 6.074099915888952e-2
      6.150502687333939e-2 6.227866487337106e-2 6.306203404149612e-2 6.385525678074099e-2
      6.465845703377226e-2 6.547176030226382e-2 6.629529366650582e-2 6.712918580526205e-2
      6.797356701587585e-2 6.882856923462906e-2 6.969432605735810e-2 7.057097276032771e-2
      7.145864632136886e-2 7.235748544128162e-2 7.326763056550688e-2 7.418922390607230e-2
      7.512240946381205e-2 7.606733305086824e-2 7.702414231347396e-2 7.799298675502287e-2
      7.897401775943035e-2 7.996738861478648e-2 8.097325453730859e-2 8.199177269559367e-2
      8.302310223517585e-2 8.406740430339422e-2 8.512484207457133e-2 8.619558077551043e-2
      8.727978771131211e-2 8.837763229151564e-2 8.948928605657057e-2 9.061492270463905e-2
      9.175471811873759e-2 9.290885039421880e-2 9.407749986659848e-2 9.526084913973463e-2
      9.645908311435837e-2 9.767238901696631e-2 9.890095642907431e-2 1.001449773168397e-1
      1.014046460610576e-1 1.026801594875318e-1 1.039717168978302e-1 1.052795201004262e-1
      1.066037734422306e-1 1.079446838405226e-1 1.093024608152796e-1 1.106773165219166e-1
      1.120694657844351e-1 1.134791261289894e-1 1.149065178178765e-1 1.163518638839516e-1
      1.178153901654783e-1 1.192973253414158e-1 1.207979009671501e-1 1.223173515106758e-1
      1.238559143892315e-1 1.254138300063974e-1 1.269913417896583e-1 1.285886962284396e-1
      1.302061429126225e-1 1.318439345715417e-1 1.335023271134763e-1 1.351815796656353e-1
      1.368819546146458e-1 1.386037176475535e-1 1.403471377933350e-1 1.421124874649351e-1
      1.439000425018319e-1 1.457100822131363e-1 1.475428894212363e-1 1.493987505059864e-1
      1.512779554494574e-1 1.531807978812445e-1 1.551075751243494e-1 1.570585882416365e-1
      1.590341420828743e-1 1.610345453323702e-1 1.630601105572014e-1 1.651111542560555e-1
      1.671879969086837e-1 1.692909630259752e-1 1.714203812006649e-1 1.735765841586745e-1
      1.757599088111030e-1 1.779706963068700e-1 1.802092920860188e-1 1.824760459336950e-1
      1.847713120347985e-1 1.870954490293275e-1 1.894488200684163e-1 1.918317928710771e-1
      1.942447397816592e-1 1.966880378280258e-1 1.991620687804679e-1 2.016672192113557e-1
      2.042038805555401e-1 2.067724491715177e-1 2.093733264033597e-1 2.120069186434256e-1
      2.146736373958614e-1 2.173738993408968e-1 2.201081263999553e-1 2.228767458015767e-1
      2.256801901481761e-1 2.285188974836363e-1 2.313933113617532e-1 2.343038809155442e-1
      2.372510609274228e-1 2.402353119002623e-1 2.432571001293492e-1 2.463168977752413e-1
      2.494151829375468e-1 2.525524397296250e-1 2.557291583542329e-1 2.589458351801191e-1
      2.622029728195812e-1 2.655010802070028e-1 2.688406726783725e-1 2.722222720518088e-1
      2.756464067090941e-1 2.791136116782342e-1 2.826244287170606e-1 2.861794063978775e-1
      2.897791001931805e-1 2.934240725624493e-1 2.971148930400314e-1 3.008521383241366e-1
      3.046363923669428e-1 3.084682464658438e-1 3.123482993558393e-1 3.162771573030860e-1
      3.202554341996327e-1 3.242837516593375e-1 3.283627391149993e-1 3.324930339167076e-1
      3.366752814314273e-1 3.409101351438422e-1 3.451982567584599e-1 3.495403163030074e-1
      3.539369922331232e-1 3.583889715383652e-1 3.628969498495587e-1 3.674616315474851e-1
      3.720837298729473e-1 3.767639670382131e-1 3.815030743398601e-1 3.863017922730475e-1
      3.911608706472141e-1 3.960810687032420e-1 4.010631552320889e-1 4.061079086949094e-1
      4.112161173446970e-1 4.163885793494449e-1 4.216261029168652e-1 4.269295064206720e-1
      4.322996185284510e-1 4.377372783311463e-1 4.432433354741635e-1 4.488186502901341e-1
      4.544640939333419e-1 4.601805485158405e-1 4.659689072452901e-1 4.718300745645170e-1
      4.777649662928402e-1 4.837745097691681e-1 4.898596439968934e-1 4.960213197906212e-1
      5.022604999247288e-1 5.085781592838064e-1 5.149752850149834e-1 5.214528766821682e-1
      5.280119464222399e-1 5.346535191031877e-1 5.413786324842564e-1 5.481883373780950e-1
      5.550836978149460e-1 5.620657912089079e-1 5.691357085262771e-1 5.762945544560192e-1
      5.835434475823763e-1 5.908835205596455e-1 5.983159202891652e-1 6.058418080985120e-1
      6.134623599229689e-1 6.211787664892638e-1 6.289922335016197e-1 6.369039818301559e-1
      6.449152477016431e-1 6.530272828926740e-1 6.612413549252524e-1 6.695587472648425e-1
      6.779807595209220e-1 6.865087076500379e-1 6.951439241614369e-1 7.038877583252687e-1
      7.127415763834084e-1 7.217067617629432e-1 7.307847152923260e-1 7.399768554202662e-1
      7.492846184373620e-1 7.587094587005185e-1 7.682528488602047e-1 7.779162800905466e-1
      7.877012623223355e-1 7.976093244789543e-1 8.076420147152705e-1 8.178009006595477e-1
      8.280875696583802e-1 8.385036290247292e-1 8.490507062890639e-1 8.597304494536617e-1
      8.705445272501231e-1 8.814946294001029e-1 8.925824668793409e-1 9.038097721850034e-1
      9.151782996063837e-1 9.266898254990238e-1 9.383461485622615e-1 9.501490901202921e-1
      9.621004944067490e-1 9.742022288528641e-1 9.864561843792687e-1 9.988642756914420e-1
      1.011428441578897e0 1.024150645218117e0 1.037032874479302e0 1.050077142236986e0
      1.063285486684541e0 1.076659971652661e0 1.090202686931836e0 1.103915748598877e0
      1.117801299347572e0 1.131861508823473e0 1.146098573962918e0 1.160514719336302e0
      1.175112197495666e0 1.189893289326674e0 1.204860304404995e0 1.220015581357186e0
      1.235361488226108e0 1.250900422840925e0 1.266634813191790e0 1.282567117809203e0
      1.298699826148176e0 1.315035458977212e0 1.331576568772172e0 1.348325740115119e0
      1.365285590098146e0 1.382458768732321e0 1.399847959361747e0 1.417455879082833e0
      1.435285279168865e0 1.453338945499876e0 1.471619698997962e0 1.490130396068052e0
      1.508873929044220e0 1.527853226641630e0 1.547071254414143e0 1.566531015217699e0
      1.586235549679517e0 1.606187936673191e0 1.626391293799788e0 1.646848777874957e0
      1.667563585422209e0 1.688538953172371e0 1.709778158569321e0 1.731284520282123e0
      1.753061398723541e0 1.775112196575140e0 1.797440359318951e0 1.820049375775824e0
      1.842942778650584e0 1.866124145084001e0 1.889597097211747e0 1.913365302730350e0
      1.937432475470273e0 1.961802375976230e0 1.986478812094747e0 2.011465639569176e0
      2.036766762642150e0 2.062386134665618e0 2.088327758718588e0 2.114595688232590e0
      2.141194027625056e0 2.168126932940636e0 2.195398612500572e0 2.223013327560289e0
      2.250975392975189e0 2.279289177874886e0 2.307959106345880e0 2.336989658122816e0
      2.366385369288480e0 2.396150832982540e0 2.426290700119260e0 2.456809680114204e0
      2.487712541620080e0 2.519004113271880e0 2.550689284441327e0 2.582773006000886e0
      2.615260291097329e0 2.648156215935041e0 2.681465920569212e0 2.715194609708953e0
      2.749347553530566e0 2.783930088501015e0 2.818947618211737e0 2.854405614223003e0
      2.890309616918820e0 2.926665236372660e0 2.963478153224036e0 3.000754119566091e0
      3.038498959844416e0 3.076718571767085e0 3.115418927226224e0 3.154606073231118e0
      3.194286132853044e0 3.234465306182060e0 3.275149871295732e0 3.316346185240138e0
      3.358060685023152e0 3.400299888620223e0 3.443070395992860e0 3.486378890119847e0
      3.530232138041508e0 3.574636991917057e0 3.619600390095242e0 3.665129358198520e0
      3.711231010220774e0 3.757912549638933e0 3.805181270538512e0 3.853044558753308e0
      3.901509893019496e0 3.950584846144144e0 4.000277086188529e0 4.050594377666267e0
      4.101544582756504e0 4.153135662532463e0 4.205375678205305e0 4.258272792383770e0
      4.311835270349576e0 4.366071481348863e0 4.420989899899960e0 4.476599107117482e0
      4.532907792053203e0 4.589924753053714e0 4.647658899135155e0 4.706119251375330e0
      4.765314944323197e0 4.825255227426224e0 4.885949466475603e0 4.947407145069651e0
      5.009637866095703e0 5.072651353230511e0 5.136457452459651e0 5.201066133615950e0
      5.266487491937270e0 5.332731749643965e0 5.399809257536060e0 5.467730496610643e0
      5.536506079699515e0 5.606146753127438e0 5.676663398391343e0 5.748067033860496e0
      5.820368816498225e0 5.893580043605174e0 5.967712154584507e0 6.042776732729409e0
      6.118785507032915e0 6.195750354020660e0 6.273683299606584e0 6.352596520971969e0
      6.432502348468223e0 6.513413267543443e0 6.595341920693357e0 6.678301109436721e0
      6.762303796315531e0 6.847363106920541e0 6.933492331942063e0 7.020704929246752e0
      7.109014525980383e0 7.198434920697088e0 7.288980085515494e0 7.380664168301795e0
      7.473501494880470e0 7.567506571272690e0 7.662694085962871e0 7.759078912193869e0
      7.856676110290851e0 7.955500930014599e0 8.055568812944268e0 8.156895394890128e0
      8.259496508336786e0 8.363388184916932e0 8.468586657916418e0 8.575108364810692e0
      8.682969949833145e0 8.792188266575916e0 8.902780380623168e0 9.014763572217742e0
      9.128155338961168e0 9.242973398547667e0 9.359235691532684e0 9.476960384135994e0
      9.596165871080354e0 9.716870778465639e0 9.839093966679167e0 9.962854533342799e0
      1.008817181629684e1 1.021506539662171e1 1.034355510169754e1 1.047366100830212e1
      1.060540344574809e1 1.073880299905930e1 1.087388051218738e1 1.101065709126859e1
      1.114915410792164e1 1.128939320258721e1 1.143139628790911e1 1.157518555215836e1
      1.172078346270004e1 1.186821276950388e1 1.201749650869903e1 1.216865800617344e1
      1.232172088121864e1 1.247670905022028e1 1.263364673039506e1 1.279255844357484e1
      1.295346902003808e1 1.311640360238972e1 1.328138764948980e1 1.344844694043128e1
      1.361760757856830e1 1.378889599559468e1 1.396233895567411e1 1.413796355962198e1
      1.431579724913993e1 1.449586781110380e1 1.467820338190520e1 1.486283245184806e1
      1.504978386960022e1 1.523908684670099e1 1.543077096212576e1 1.562486616690747e1
      1.582140278881680e1 1.602041153710081e1 1.622192350728124e1 1.642597018601348e1
      1.663258345600614e1 1.684179560100306e1 1.705363931082756e1 1.726814768649025e1
      1.748535424536130e1 1.770529292640740e1 1.792799809549494e1 1.815350455075972e1
      1.838184752804412e1 1.861306270640298e1 1.884718621367824e1 1.908425463214430e1
      1.932430500422387e1 1.956737483827593e1 1.981350211445663e1 2.006272529065356e1
      2.031508330849509e1 2.057061559943497e1 2.082936209091347e1 2.109136321259637e1
      2.135665990269192e1 2.162529361434772e1 2.189730632212781e1 2.217274052857110e1
      2.245163927083282e1 2.273404612740878e1 2.302000522494492e1 2.330956124513206e1
      2.360275943168739e1 2.389964559742415e1 2.420026613140966e1 2.450466800621404e1
      2.481289878524956e1 2.512500663020247e1 2.544104030855862e1 2.576104920122313e1
      2.608508331023660e1 2.641319326658784e1 2.674543033812501e1 2.708184643756656e1
      2.742249413061237e1 2.776742664415759e1 2.811669787460927e1 2.847036239630769e1
      2.882847547005397e1 2.919109305174439e1 2.955827180111389e1 2.993006909058913e1
      3.030654301425292e1 3.068775239692188e1 3.107375680333753e1 3.146461654747375e1
      3.186039270196082e1 3.226114710762799e1 3.266694238316661e1 3.307784193491393e1
      3.349390996676100e1 3.391521149018430e1 3.434181233440393e1 3.477377915666983e1
      3.521117945267669e1 3.565408156711074e1 3.610255470432851e1 3.655666893916998e1
      3.701649522790838e1 3.748210541933672e1 3.795357226599477e1 3.843096943553660e1
      3.891437152224107e1 3.940385405866786e1 3.989949352745901e1 4.040136737328999e1