<UPF version="2.0.1">
  <PP_INFO>
Generated using Vanderbilt code, version   7  3  6
Author: kfg    Generation date:   23    7 2013
Automatically converted from original format
1        The Pseudo was generated with a Scalar-Relativistic Calculation
2.00000000000E+00    Local Potential cutoff radius
nl pn  l   occ               Rcut            Rcut US             E pseu
5D  5  2 10.00      0.00000000000      2.30000000000     -2.58646448600
6S  6  0  2.00      0.00000000000      2.50000000000     -1.63124606400
6P  6  1  2.00      0.00000000000      2.50000000000     -0.84397902100
</PP_INFO>
  <PP_HEADER element="Bi" pseudo_type="US" relativistic="scalar" is_ultrasoft="T" is_paw="F" is_coulomb="F" has_so="F" has_wfc="F" has_gipaw="F" core_correction="T" functional="PBESOL" z_valence="15.0" total_psenergy="-184.08673571" wfc_cutoff="0.0" rho_cutoff="0.0" l_max="2" mesh_size="899" number_of_wfc="3" number_of_proj="6"/>
  <PP_MESH>
    <PP_R>
0.00000000000000E+00 6.89403751357000E-10 1.39625984177000E-09 2.12101007930000E-09 
2.86410745645000E-09 3.62601643326000E-09 4.40721322765000E-09 5.20818611305000E-09 
6.02943572357000E-09 6.87147536696000E-09 7.73483134541000E-09 8.62004328452000E-09 
9.52766447055000E-09 1.04582621963000E-08 1.14124181156000E-08 1.23907286071000E-08 
1.33938051465000E-08 1.44222746894000E-08 1.54767800628000E-08 1.65579803667000E-08 
1.76665513867000E-08 1.88031860157000E-08 1.99685946873000E-08 2.11635058198000E-08 
2.23886662717000E-08 2.36448418082000E-08 2.49328175797000E-08 2.62533986131000E-08 
2.76074103145000E-08 2.89956989853000E-08 3.04191323512000E-08 3.18786001043000E-08 
3.33750144594000E-08 3.49093107243000E-08 3.64824478841000E-08 3.80954092006000E-08 
3.97492028273000E-08 4.14448624390000E-08 4.31834478781000E-08 4.49660458172000E-08 
4.67937704379000E-08 4.86677641277000E-08 5.05891981936000E-08 5.25592735945000E-08 
5.45792216915000E-08 5.66503050182000E-08 5.87738180688000E-08 6.09510881082000E-08 
6.31834760012000E-08 6.54723770626000E-08 6.78192219304000E-08 7.02254774587000E-08 
7.26926476359000E-08 7.52222745234000E-08 7.78159392204000E-08 8.04752628518000E-08 
8.32019075815000E-08 8.59975776512000E-08 8.88640204456000E-08 9.18030275848000E-08 
9.48164360440000E-08 9.79061293015000E-08 1.01074038516000E-07 1.04322143734000E-07 
1.07652475128000E-07 1.11067114262000E-07 1.14568195397000E-07 1.18157906823000E-07 
1.21838492227000E-07 1.25612252093000E-07 1.29481545146000E-07 1.33448789818000E-07 
1.37516465767000E-07 1.41687115424000E-07 1.45963345579000E-07 1.50347829016000E-07 
1.54843306179000E-07 1.59452586889000E-07 1.64178552095000E-07 1.69024155680000E-07 
1.73992426304000E-07 1.79086469298000E-07 1.84309468604000E-07 1.89664688767000E-07 
1.95155476973000E-07 2.00785265145000E-07 2.06557572083000E-07 2.12476005667000E-07 
2.18544265111000E-07 2.24766143273000E-07 2.31145529031000E-07 2.37686409709000E-07 
2.44392873569000E-07 2.51269112370000E-07 2.58319423985000E-07 2.65548215089000E-07 
2.72960003910000E-07 2.80559423059000E-07 2.88351222419000E-07 2.96340272119000E-07 
3.04531565575000E-07 3.12930222613000E-07 3.21541492665000E-07 3.30370758057000E-07 
3.39423537367000E-07 3.48705488875000E-07 3.58222414105000E-07 3.67980261444000E-07 
3.77985129864000E-07 3.88243272735000E-07 3.98761101728000E-07 4.09545190830000E-07 
4.20602280448000E-07 4.31939281621000E-07 4.43563280346000E-07 4.55481542000000E-07 
4.67701515883000E-07 4.80230839879000E-07 4.93077345221000E-07 5.06249061395000E-07 
5.19754221151000E-07 5.33601265654000E-07 5.47798849757000E-07 5.62355847413000E-07 
5.77281357219000E-07 5.92584708105000E-07 6.08275465163000E-07 6.24363435627000E-07 
6.40858675002000E-07 6.57771493351000E-07 6.75112461734000E-07 6.92892418821000E-07 
7.11122477666000E-07 7.29814032647000E-07 7.48978766595000E-07 7.68628658093000E-07 
7.88775988962000E-07 8.09433351941000E-07 8.30613658553000E-07 8.52330147180000E-07 
8.74596391334000E-07 8.97426308142000E-07 9.20834167046000E-07 9.44834598719000E-07 
9.69442604213000E-07 9.94673564331000E-07 1.02054324925000E-06 1.04706782835000E-06 
1.07426388038000E-06 1.10214840373000E-06 1.13073882716000E-06 1.16005302060000E-06 
1.19010930639000E-06 1.22092647067000E-06 1.25252377517000E-06 1.28492096925000E-06 
1.31813830221000E-06 1.35219653595000E-06 1.38711695798000E-06 1.42292139470000E-06 
1.45963222506000E-06 1.49727239451000E-06 1.53586542938000E-06 1.57543545159000E-06 
1.61600719368000E-06 1.65760601430000E-06 1.70025791409000E-06 1.74398955186000E-06 
1.78882826131000E-06 1.83480206809000E-06 1.88193970733000E-06 1.93027064160000E-06 
1.97982507928000E-06 2.03063399354000E-06 2.08272914157000E-06 2.13614308456000E-06 
2.19090920796000E-06 2.24706174237000E-06 2.30463578495000E-06 2.36366732137000E-06 
2.42419324824000E-06 2.48625139624000E-06 2.54988055374000E-06 2.61512049104000E-06 
2.68201198520000E-06 2.75059684561000E-06 2.82091794002000E-06 2.89301922141000E-06 
2.96694575543000E-06 3.04274374857000E-06 3.12046057704000E-06 3.20014481640000E-06 
3.28184627187000E-06 3.36561600954000E-06 3.45150638821000E-06 3.53957109217000E-06 
3.62986516472000E-06 3.72244504261000E-06 3.81736859126000E-06 3.91469514098000E-06 
4.01448552404000E-06 4.11680211268000E-06 4.22170885809000E-06 4.32927133040000E-06 
4.43955675966000E-06 4.55263407786000E-06 4.66857396200000E-06 4.78744887827000E-06 
4.90933312738000E-06 5.03430289095000E-06 5.16243627914000E-06 5.29381337950000E-06 
5.42851630699000E-06 5.56662925532000E-06 5.70823854958000E-06 5.85343270020000E-06 
6.00230245824000E-06 6.15494087214000E-06 6.31144334589000E-06 6.47190769863000E-06 
6.63643422579000E-06 6.80512576182000E-06 6.97808774442000E-06 7.15542828045000E-06 
7.33725821353000E-06 7.52369119327000E-06 7.71484374637000E-06 7.91083534939000E-06 
8.11178850346000E-06 8.31782881084000E-06 8.52908505344000E-06 8.74568927328000E-06 
8.96777685506000E-06 9.19548661073000E-06 9.42896086631000E-06 9.66834555081000E-06 
9.91379028746000E-06 1.01654484872000E-05 1.04234774446000E-05 1.06880384361000E-05 
1.09592968211000E-05 1.12374221447000E-05 1.15225882444000E-05 1.18149733583000E-05 
1.21147602366000E-05 1.24221362559000E-05 1.27372935362000E-05 1.30604290609000E-05 
1.33917448005000E-05 1.37314478379000E-05 1.40797504986000E-05 1.44368704832000E-05 
1.48030310032000E-05 1.51784609209000E-05 1.55633948923000E-05 1.59580735135000E-05 
1.63627434716000E-05 1.67776576984000E-05 1.72030755289000E-05 1.76392628631000E-05 
1.80864923322000E-05 1.85450434692000E-05 1.90152028835000E-05 1.94972644400000E-05 
1.99915294430000E-05 2.04983068240000E-05 2.10179133356000E-05 2.15506737486000E-05 
2.20969210557000E-05 2.26569966792000E-05 2.32312506846000E-05 2.38200419994000E-05 
2.44237386372000E-05 2.50427179282000E-05 2.56773667546000E-05 2.63280817925000E-05 
2.69952697600000E-05 2.76793476713000E-05 2.83807430974000E-05 2.90998944332000E-05 
2.98372511718000E-05 3.05932741851000E-05 3.13684360121000E-05 3.21632211541000E-05 
3.29781263778000E-05 3.38136610255000E-05 3.46703473335000E-05 3.55487207586000E-05 
3.64493303129000E-05 3.73727389065000E-05 3.83195237000000E-05 3.92902764647000E-05 
4.02856039526000E-05 4.13061282758000E-05 4.23524872952000E-05 4.34253350194000E-05 
4.45253420130000E-05 4.56531958162000E-05 4.68096013743000E-05 4.79952814786000E-05 
4.92109772176000E-05 5.04574484407000E-05 5.17354742331000E-05 5.30458534024000E-05 
5.43894049784000E-05 5.57669687244000E-05 5.71794056627000E-05 5.86275986123000E-05 
6.01124527410000E-05 6.16348961309000E-05 6.31958803587000E-05 6.47963810904000E-05 
6.64373986910000E-05 6.81199588500000E-05 6.98451132221000E-05 7.16139400851000E-05 
7.34275450134000E-05 7.52870615689000E-05 7.71936520102000E-05 7.91485080183000E-05 
8.11528514419000E-05 8.32079350608000E-05 8.53150433692000E-05 8.74754933784000E-05 
8.96906354400000E-05 9.19618540898000E-05 9.42905689135000E-05 9.66782354336000E-05 
9.91263460194000E-05 1.01636430820000E-04 1.04210058719000E-04 1.06848838320000E-04 
1.09554418943000E-04 1.12328491667000E-04 1.15172790375000E-04 1.18089092848000E-04 
1.21079221870000E-04 1.24145046369000E-04 1.27288482584000E-04 1.30511495265000E-04 
1.33816098902000E-04 1.37204358977000E-04 1.40678393265000E-04 1.44240373149000E-04 
1.47892524984000E-04 1.51637131482000E-04 1.55476533145000E-04 1.59413129725000E-04 
1.63449381720000E-04 1.67587811922000E-04 1.71831006983000E-04 1.76181619038000E-04 
1.80642367362000E-04 1.85216040068000E-04 1.89905495849000E-04 1.94713665768000E-04 
1.99643555089000E-04 2.04698245151000E-04 2.09880895302000E-04 2.15194744866000E-04 
2.20643115173000E-04 2.26229411630000E-04 2.31957125855000E-04 2.37829837856000E-04 
2.43851218270000E-04 2.50025030654000E-04 2.56355133843000E-04 2.62845484357000E-04 
2.69500138877000E-04 2.76323256777000E-04 2.83319102730000E-04 2.90492049366000E-04 
2.97846580011000E-04 3.05387291486000E-04 3.13118896980000E-04 3.21046228999000E-04 
3.29174242384000E-04 3.37508017407000E-04 3.46052762950000E-04 3.54813819755000E-04 
3.63796663770000E-04 3.73006909563000E-04 3.82450313839000E-04 3.92132779032000E-04 
4.02060356999000E-04 4.12239252798000E-04 4.22675828572000E-04 4.33376607518000E-04 
4.44348277974000E-04 4.55597697589000E-04 4.67131897618000E-04 4.78958087311000E-04 
4.91083658421000E-04 5.03516189825000E-04 5.16263452261000E-04 5.29333413181000E-04 
5.42734241737000E-04 5.56474313883000E-04 5.70562217611000E-04 5.85006758321000E-04 
5.99816964319000E-04 6.15002092467000E-04 6.30571633964000E-04 6.46535320281000E-04 
6.62903129241000E-04 6.79685291257000E-04 6.96892295728000E-04 7.14534897591000E-04 
7.32624124046000E-04 7.51171281449000E-04 7.70187962377000E-04 7.89686052875000E-04 
8.09677739884000E-04 8.30175518859000E-04 8.51192201579000E-04 8.72740924155000E-04 
8.94835155240000E-04 9.17488704448000E-04 9.40715730985000E-04 9.64530752498000E-04 
9.88948654151000E-04 1.01398469793000E-03 1.03965453217000E-03 1.06597420136000E-03 
1.09296015614000E-03 1.12062926363000E-03 1.14899881791000E-03 1.17808655087000E-03 
1.20791064329000E-03 1.23848973622000E-03 1.26984294256000E-03 1.30198985910000E-03 
1.33495057871000E-03 1.36874570291000E-03 1.40339635475000E-03 1.43892419202000E-03 
1.47535142077000E-03 1.51270080920000E-03 1.55099570191000E-03 1.59026003444000E-03 
1.63051834828000E-03 1.67179580619000E-03 1.71411820792000E-03 1.75751200635000E-03 
1.80200432401000E-03 1.84762297007000E-03 1.89439645764000E-03 1.94235402169000E-03 
1.99152563726000E-03 2.04194203819000E-03 2.09363473640000E-03 2.14663604149000E-03 
2.20097908100000E-03 2.25669782112000E-03 2.31382708785000E-03 2.37240258885000E-03 
2.43246093573000E-03 2.49403966689000E-03 2.55717727105000E-03 2.62191321128000E-03 
2.68828794963000E-03 2.75634297248000E-03 2.82612081644000E-03 2.89766509493000E-03 
2.97102052545000E-03 3.04623295753000E-03 3.12334940140000E-03 3.20241805734000E-03 
3.28348834584000E-03 3.36661093846000E-03 3.45183778953000E-03 3.53922216860000E-03 
3.62881869377000E-03 3.72068336577000E-03 3.81487360301000E-03 3.91144827746000E-03 
4.01046775143000E-03 4.11199391532000E-03 4.21609022629000E-03 4.32282174791000E-03 
4.43225519087000E-03 4.54445895462000E-03 4.65950317018000E-03 4.77745974392000E-03 
4.89840240254000E-03 5.02240673915000E-03 5.14955026047000E-03 5.27991243537000E-03 
5.41357474443000E-03 5.55062073096000E-03 5.69113605315000E-03 5.83520853766000E-03 
5.98292823448000E-03 6.13438747323000E-03 6.28968092086000E-03 6.44890564084000E-03 
6.61216115379000E-03 6.77954949973000E-03 6.95117530182000E-03 7.12714583178000E-03 
7.30757107691000E-03 7.49256380886000E-03 7.68223965412000E-03 7.87671716627000E-03 
8.07611790008000E-03 8.28056648749000E-03 8.49019071553000E-03 8.70512160618000E-03 
8.92549349822000E-03 9.15144413127000E-03 9.38311473183000E-03 9.62065010157000E-03 
9.86419870781000E-03 1.01139127764000E-02 1.03699483867000E-02 1.06324655693000E-02 
1.09016284061000E-02 1.11776051325000E-02 1.14605682430000E-02 1.17506945988000E-02 
1.20481655382000E-02 1.23531669903000E-02 1.26658895909000E-02 1.29865288019000E-02 
1.33152850331000E-02 1.36523637679000E-02 1.39979756916000E-02 1.43523368227000E-02 
1.47156686486000E-02 1.50881982634000E-02 1.54701585103000E-02 1.58617881270000E-02 
1.62633318945000E-02 1.66750407910000E-02 1.70971721478000E-02 1.75299898107000E-02 
1.79737643050000E-02 1.84287730040000E-02 1.88953003031000E-02 1.93736377971000E-02 
1.98640844623000E-02 2.03669468440000E-02 2.08825392474000E-02 2.14111839348000E-02 
2.19532113260000E-02 2.25089602061000E-02 2.30787779360000E-02 2.36630206704000E-02 
2.42620535800000E-02 2.48762510800000E-02 2.55059970637000E-02 2.61516851428000E-02 
2.68137188935000E-02 2.74925121084000E-02 2.81884890554000E-02 2.89020847426000E-02 
2.96337451907000E-02 3.03839277112000E-02 3.11531011926000E-02 3.19417463934000E-02 
3.27503562425000E-02 3.35794361474000E-02 3.44295043100000E-02 3.53010920507000E-02 
3.61947441400000E-02 3.71110191396000E-02 3.80504897513000E-02 3.90137431748000E-02 
4.00013814748000E-02 4.10140219574000E-02 4.20522975558000E-02 4.31168572262000E-02 
4.42083663529000E-02 4.53275071647000E-02 4.64749791611000E-02 4.76514995493000E-02 
4.88578036930000E-02 5.00946455714000E-02 5.13627982511000E-02 5.26630543687000E-02 
5.39962266266000E-02 5.53631483009000E-02 5.67646737622000E-02 5.82016790094000E-02 
5.96750622177000E-02 6.11857442994000E-02 6.27346694801000E-02 6.43228058885000E-02 
6.59511461614000E-02 6.76207080646000E-02 6.93325351286000E-02 7.10876973011000E-02 
7.28872916155000E-02 7.47324428768000E-02 7.66243043647000E-02 7.85640585542000E-02 
8.05529178548000E-02 8.25921253683000E-02 8.46829556658000E-02 8.68267155842000E-02 
8.90247450434000E-02 9.12784178832000E-02 9.35891427226000E-02 9.59583638398000E-02 
9.83875620752000E-02 1.00878255757000E-01 1.03432001649000E-01 1.06050395926000E-01 
1.08735075170000E-01 1.11487717392000E-01 1.14310043085000E-01 1.17203816292000E-01 
1.20170845717000E-01 1.23212985849000E-01 1.26332138125000E-01 1.29530252117000E-01 
1.32809326751000E-01 1.36171411554000E-01 1.39618607938000E-01 1.43153070515000E-01 
1.46777008438000E-01 1.50492686786000E-01 1.54302427980000E-01 1.58208613231000E-01 
1.62213684032000E-01 1.66320143684000E-01 1.70530558856000E-01 1.74847561196000E-01 
1.79273848970000E-01 1.83812188753000E-01 1.88465417155000E-01 1.93236442594000E-01 
1.98128247118000E-01 2.03143888262000E-01 2.08286500967000E-01 2.13559299532000E-01 
2.18965579628000E-01 2.24508720356000E-01 2.30192186360000E-01 2.36019529991000E-01 
2.41994393528000E-01 2.48120511456000E-01 2.54401712798000E-01 2.60841923508000E-01 
2.67445168929000E-01 2.74215576304000E-01 2.81157377357000E-01 2.88274910940000E-01 
2.95572625744000E-01 3.03055083078000E-01 3.10726959721000E-01 3.18593050846000E-01 
3.26658273016000E-01 3.34927667257000E-01 3.43406402210000E-01 3.52099777360000E-01 
3.61013226350000E-01 3.70152320376000E-01 3.79522771668000E-01 3.89130437064000E-01 
3.98981321667000E-01 4.09081582601000E-01 4.19437532859000E-01 4.30055645245000E-01 
4.40942556426000E-01 4.52105071076000E-01 4.63550166129000E-01 4.75284995143000E-01 
4.87316892768000E-01 4.99653379331000E-01 5.12302165539000E-01 5.25271157294000E-01 
5.38568460638000E-01 5.52202386819000E-01 5.66181457485000E-01 5.80514410009000E-01 
5.95210202954000E-01 6.10278021669000E-01 6.25727284030000E-01 6.41567646330000E-01 
6.57809009311000E-01 6.74461524353000E-01 6.91535599821000E-01 7.09041907566000E-01 
7.26991389603000E-01 7.45395264940000E-01 7.64265036600000E-01 7.83612498803000E-01 
8.03449744345000E-01 8.23789172147000E-01 8.44643495016000E-01 8.66025747582000E-01 
8.87949294449000E-01 9.10427838547000E-01 9.33475429698000E-01 9.57106473397000E-01 
9.81335739815000E-01 1.00617837303000E+00 1.03164990050000E+00 1.05776624276000E+00 
1.08454372338000E+00 1.11199907914000E+00 1.14014947054000E+00 1.16901249249000E+00 
1.19860618532000E+00 1.22894904605000E+00 1.26006003996000E+00 1.29195861243000E+00 
1.32466470111000E+00 1.35819874836000E+00 1.39258171406000E+00 1.42783508868000E+00 
1.46398090673000E+00 1.50104176052000E+00 1.53904081429000E+00 1.57800181868000E+00 
1.61794912560000E+00 1.65890770340000E+00 1.70090315254000E+00 1.74396172154000E+00 
1.78811032340000E+00 1.83337655244000E+00 1.87978870152000E+00 1.92737577975000E+00 
1.97616753060000E+00 2.02619445050000E+00 2.07748780791000E+00 2.13007966284000E+00 
2.18400288693000E+00 2.23929118392000E+00 2.29597911082000E+00 2.35410209942000E+00 
2.41369647849000E+00 2.47479949644000E+00 2.53744934465000E+00 2.60168518133000E+00 
2.66754715595000E+00 2.73507643440000E+00 2.80431522467000E+00 2.87530680326000E+00 
2.94809554222000E+00 3.02272693687000E+00 3.09924763428000E+00 3.17770546237000E+00 
3.25814945983000E+00 3.34062990678000E+00 3.42519835619000E+00 3.51190766608000E+00 
3.60081203261000E+00 3.69196702389000E+00 3.78542961476000E+00 3.88125822239000E+00 
3.97951274276000E+00 4.08025458816000E+00 4.18354672552000E+00 4.28945371579000E+00 
4.39804175428000E+00 4.50937871205000E+00 4.62353417832000E+00 4.74057950399000E+00 
4.86058784617000E+00 4.98363421401000E+00 5.10979551548000E+00 5.23915060549000E+00 
5.37178033521000E+00 5.50776760251000E+00 5.64719740388000E+00 5.79015688747000E+00 
5.93673540763000E+00 6.08702458068000E+00 6.24111834227000E+00 6.39911300600000E+00 
6.56110732368000E+00 6.72720254704000E+00 6.89750249100000E+00 7.07211359857000E+00 
7.25114500737000E+00 7.43470861786000E+00 7.62291916328000E+00 7.81589428133000E+00 
8.01375458776000E+00 8.21662375169000E+00 8.42462857296000E+00 8.63789906135000E+00 
8.85656851785000E+00 9.08077361800000E+00 9.31065449729000E+00 9.54635483874000E+00 
9.78802196274000E+00 1.00358069191000E+01 1.02898645815000E+01 1.05503537443000E+01 
1.08174372216000E+01 1.10912819493000E+01 1.13720590893000E+01 1.16599441364000E+01 
1.19551170282000E+01 1.22577622574000E+01 1.25680689870000E+01 1.28862311688000E+01 
1.32124476647000E+01 1.35469223704000E+01 1.38898643437000E+01 1.42414879343000E+01 
1.46020129185000E+01 1.49716646361000E+01 1.53506741315000E+01 1.57392782979000E+01 
1.61377200257000E+01 1.65462483538000E+01 1.69651186258000E+01 1.73945926492000E+01 
1.78349388593000E+01 1.82864324868000E+01 1.87493557298000E+01 1.92239979306000E+01 
1.97106557559000E+01 2.02096333826000E+01 2.07212426881000E+01 2.12458034449000E+01 
2.17836435204000E+01 2.23350990823000E+01 2.29005148082000E+01 2.34802441013000E+01 
2.40746493114000E+01 2.46841019610000E+01 2.53089829778000E+01 2.59496829330000E+01 
2.66066022847000E+01 2.72801516289000E+01 2.79707519560000E+01 2.86788349136000E+01 
2.94048430767000E+01 3.01492302239000E+01 3.09124616214000E+01 3.16950143137000E+01 
3.24973774218000E+01 3.33200524486000E+01 3.41635535929000E+01 3.50284080704000E+01 
3.59151564431000E+01 3.68243529579000E+01 3.77565658919000E+01 3.87123779087000E+01 
3.96923864220000E+01 4.06972039688000E+01 4.17274585930000E+01 4.27837942372000E+01 
4.38668711454000E+01 4.49773662762000E+01 4.61159737251000E+01 4.72834051587000E+01 
4.84803902598000E+01 4.97076771830000E+01 5.09660330225000E+01 5.22562442918000E+01 
5.35791174149000E+01 5.49354792306000E+01 5.63261775091000E+01 5.77520814821000E+01 
5.92140823860000E+01 6.07130940190000E+01 6.22500533122000E+01 6.38259209152000E+01 
6.54416817964000E+01 6.70983458591000E+01 6.87969485722000E+01 7.05385516177000E+01 
7.23242435542000E+01 7.41551404973000E+01 7.60323868172000E+01 7.79571558539000E+01 
7.99306506508000E+01 8.19541047063000E+01 8.40287827451000E+01 8.61559815085000E+01 
8.83370305650000E+01 9.05732931412000E+01 9.28661669741000E+01 9.52170851844000E+01 
9.76275171725000E+01 1.00098969537000E+02 1.02632987016000E+02 1.05231153453000E+02 
1.07895092786000E+02 1.10626470064000E+02 1.13426992488000E+02 1.16298410474000E+02 
1.19242518753000E+02 1.22261157487000E+02 1.25356213425000E+02 1.28529621077000E+02 
1.31783363927000E+02 1.35119475668000E+02 1.38540041481000E+02 1.42047199329000E+02 
1.45643141301000E+02 1.49330114977000E+02 1.53110424836000E+02 
</PP_R>
    <PP_RAB>
6.80822110536000E-10 6.98057204320000E-10 7.15728606581000E-10 7.33847362519000E-10 
7.52424796948000E-10 7.71472521368000E-10 7.91002441228000E-10 8.11026763363000E-10 
8.31558003626000E-10 8.52608994711000E-10 8.74192894172000E-10 8.96323192649000E-10 
9.19013722300000E-10 9.42278665444000E-10 9.66132563427000E-10 9.90590325713000E-10 
1.01566723920000E-09 1.04137897777000E-09 1.06774161211000E-09 1.09477161970000E-09 
1.12248589520000E-09 1.15090176093000E-09 1.18003697772000E-09 1.20990975603000E-09 
1.24053876733000E-09 1.27194315574000E-09 1.30414255003000E-09 1.33715707586000E-09 
1.37100736840000E-09 1.40571458517000E-09 1.44130041932000E-09 1.47778711314000E-09 
1.51519747202000E-09 1.55355487864000E-09 1.59288330764000E-09 1.63320734055000E-09 
1.67455218122000E-09 1.71694367151000E-09 1.76040830749000E-09 1.80497325597000E-09 
1.85066637148000E-09 1.89751621373000E-09 1.94555206538000E-09 1.99480395040000E-09 
2.04530265283000E-09 2.09707973599000E-09 2.15016756226000E-09 2.20459931324000E-09 
2.26040901057000E-09 2.31763153710000E-09 2.37630265880000E-09 2.43645904701000E-09 
2.49813830143000E-09 2.56137897362000E-09 2.62622059105000E-09 2.69270368183000E-09 
2.76086980007000E-09 2.83076155182000E-09 2.90242262168000E-09 2.97589780016000E-09 
3.05123301164000E-09 3.12847534307000E-09 3.20767307344000E-09 3.28887570390000E-09 
3.37213398873000E-09 3.45749996708000E-09 3.54502699546000E-09 3.63476978111000E-09 
3.72678441620000E-09 3.82112841287000E-09 3.91786073918000E-09 4.01704185599000E-09 
4.11873375472000E-09 4.22299999613000E-09 4.32990575001000E-09 4.43951783593000E-09 
4.55190476502000E-09 4.66713678276000E-09 4.78528591292000E-09 4.90642600255000E-09 
5.03063276815000E-09 5.15798384299000E-09 5.28855882563000E-09 5.42243932971000E-09 
5.55970903487000E-09 5.70045373917000E-09 5.84476141262000E-09 5.99272225222000E-09 
6.14442873830000E-09 6.29997569237000E-09 6.45946033632000E-09 6.62298235326000E-09 
6.79064394976000E-09 6.96254991979000E-09 7.13880771017000E-09 7.31952748775000E-09 
7.50482220828000E-09 7.69480768700000E-09 7.88960267101000E-09 8.08932891352000E-09 
8.29411124992000E-09 8.50407767586000E-09 8.71935942717000E-09 8.94009106197000E-09 
9.16641054470000E-09 9.39845933242000E-09 9.63638246316000E-09 9.88032864663000E-09 
1.01304503571000E-08 1.03869039289000E-08 1.06498496537000E-08 1.09194518813000E-08 
1.11958791217000E-08 1.14793041511000E-08 1.17699041192000E-08 1.20678606605000E-08 
1.23733600076000E-08 1.26865931075000E-08 1.30077557411000E-08 1.33370486454000E-08 
1.36746776393000E-08 1.40208537519000E-08 1.43757933545000E-08 1.47397182959000E-08 
1.51128560410000E-08 1.54954398132000E-08 1.58877087396000E-08 1.62899080012000E-08 
1.67022889856000E-08 1.71251094443000E-08 1.75586336539000E-08 1.80031325811000E-08 
1.84588840522000E-08 1.89261729267000E-08 1.94052912754000E-08 1.98965385629000E-08 
2.04002218346000E-08 2.09166559091000E-08 2.14461635744000E-08 2.19890757900000E-08 
2.25457318939000E-08 2.31164798141000E-08 2.37016762867000E-08 2.43016870785000E-08 
2.49168872159000E-08 2.55476612188000E-08 2.61944033417000E-08 2.68575178193000E-08 
2.75374191199000E-08 2.82345322039000E-08 2.89492927896000E-08 2.96821476256000E-08 
3.04335547702000E-08 3.12039838772000E-08 3.19939164899000E-08 3.28038463419000E-08 
3.36342796657000E-08 3.44857355092000E-08 3.53587460600000E-08 3.62538569781000E-08 
3.71716277370000E-08 3.81126319732000E-08 3.90774578451000E-08 4.00667084002000E-08 
4.10810019524000E-08 4.21209724681000E-08 4.31872699627000E-08 4.42805609070000E-08 
4.54015286432000E-08 4.65508738128000E-08 4.77293147939000E-08 4.89375881505000E-08 
5.01764490927000E-08 5.14466719489000E-08 5.27490506499000E-08 5.40843992246000E-08 
5.54535523095000E-08 5.68573656697000E-08 5.82967167344000E-08 5.97725051447000E-08 
6.12856533165000E-08 6.28371070166000E-08 6.44278359541000E-08 6.60588343864000E-08 
6.77311217406000E-08 6.94457432507000E-08 7.12037706110000E-08 7.30063026458000E-08 
7.48544659964000E-08 7.67494158249000E-08 7.86923365366000E-08 8.06844425204000E-08 
8.27269789073000E-08 8.48212223489000E-08 8.69684818157000E-08 8.91700994147000E-08 
9.14274512286000E-08 9.37419481757000E-08 9.61150368919000E-08 9.85482006351000E-08 
1.01042960212000E-07 1.03600874928000E-07 1.06223543563000E-07 1.08912605371000E-07 
1.11669741102000E-07 1.14496674057000E-07 1.17395171160000E-07 1.20367044067000E-07 
1.23414150295000E-07 1.26538394384000E-07 1.29741729089000E-07 1.33026156598000E-07 
1.36393729785000E-07 1.39846553493000E-07 1.43386785850000E-07 1.47016639615000E-07 
1.50738383566000E-07 1.54554343914000E-07 1.58466905758000E-07 1.62478514576000E-07 
1.66591677755000E-07 1.70808966156000E-07 1.75133015721000E-07 1.79566529122000E-07 
1.84112277449000E-07 1.88773101942000E-07 1.93551915770000E-07 1.98451705845000E-07 
2.03475534697000E-07 2.08626542382000E-07 2.13907948447000E-07 2.19323053943000E-07 
2.24875243487000E-07 2.30567987379000E-07 2.36404843768000E-07 2.42389460881000E-07 
2.48525579297000E-07 2.54817034290000E-07 2.61267758225000E-07 2.67881783014000E-07 
2.74663242637000E-07 2.81616375728000E-07 2.88745528221000E-07 2.96055156069000E-07 
3.03549828027000E-07 3.11234228508000E-07 3.19113160514000E-07 3.27191548634000E-07 
3.35474442122000E-07 3.43967018057000E-07 3.52674584576000E-07 3.61602584190000E-07 
3.70756597191000E-07 3.80142345134000E-07 3.89765694417000E-07 3.99632659948000E-07 
4.09749408900000E-07 4.20122264571000E-07 4.30757710334000E-07 4.41662393688000E-07 
4.52843130415000E-07 4.64306908840000E-07 4.76060894198000E-07 4.88112433111000E-07 
5.00469058185000E-07 5.13138492712000E-07 5.26128655500000E-07 5.39447665826000E-07 
5.53103848503000E-07 5.67105739090000E-07 5.81462089225000E-07 5.96181872094000E-07 
6.11274288041000E-07 6.26748770316000E-07 6.42614990975000E-07 6.58882866923000E-07 
6.75562566110000E-07 6.92664513893000E-07 7.10199399545000E-07 7.28178182941000E-07 
7.46612101406000E-07 7.65512676738000E-07 7.84891722412000E-07 8.04761350964000E-07 
8.25133981557000E-07 8.46022347749000E-07 8.67439505448000E-07 8.89398841076000E-07 
9.11914079932000E-07 9.34999294774000E-07 9.58668914611000E-07 9.82937733728000E-07 
1.00782092093000E-06 1.03333402901000E-06 1.05949300449000E-06 1.08631419760000E-06 
1.11381437243000E-06 1.14201071751000E-06 1.17092085647000E-06 1.20056285907000E-06 
1.23095525255000E-06 1.26211703313000E-06 1.29406767794000E-06 1.32682715717000E-06 
1.36041594657000E-06 1.39485504022000E-06 1.43016596368000E-06 1.46637078742000E-06 
1.50349214064000E-06 1.54155322538000E-06 1.58057783108000E-06 1.62059034937000E-06 
1.66161578939000E-06 1.70367979336000E-06 1.74680865266000E-06 1.79102932424000E-06 
1.83636944744000E-06 1.88285736133000E-06 1.93052212237000E-06 1.97939352257000E-06 
2.02950210816000E-06 2.08087919863000E-06 2.13355690634000E-06 2.18756815657000E-06 
2.24294670811000E-06 2.29972717436000E-06 2.35794504495000E-06 2.41763670795000E-06 
2.47883947260000E-06 2.54159159261000E-06 2.60593229010000E-06 2.67190178010000E-06 
2.73954129569000E-06 2.80889311377000E-06 2.88000058149000E-06 2.95290814332000E-06 
3.02766136887000E-06 3.10430698133000E-06 3.18289288670000E-06 3.26346820375000E-06 
3.34608329465000E-06 3.43078979654000E-06 3.51764065373000E-06 3.60669015084000E-06 
3.69799394671000E-06 3.79160910917000E-06 3.88759415075000E-06 3.98600906522000E-06 
4.08691536512000E-06 4.19037612016000E-06 4.29645599669000E-06 4.40522129807000E-06 
4.51674000617000E-06 4.63108182380000E-06 4.74831821833000E-06 4.86852246632000E-06 
4.99176969933000E-06 5.11813695089000E-06 5.24770320467000E-06 5.38054944377000E-06 
5.51675870143000E-06 5.65641611286000E-06 5.79960896849000E-06 5.94642676852000E-06 
6.09696127886000E-06 6.25130658846000E-06 6.40955916819000E-06 6.57181793104000E-06 
6.73818429403000E-06 6.90876224154000E-06 7.08365839036000E-06 7.26298205627000E-06 
7.44684532239000E-06 7.63536310925000E-06 7.82865324661000E-06 8.02683654710000E-06 
8.23003688171000E-06 8.43838125730000E-06 8.65199989586000E-06 8.87102631600000E-06 
9.09559741636000E-06 9.32585356120000E-06 9.56193866809000E-06 9.80400029792000E-06 
1.00521897471000E-05 1.03066621421000E-05 1.05675765364000E-05 1.08350960101000E-05 
1.11093877715000E-05 1.13906232618000E-05 1.16789782626000E-05 1.19746330049000E-05 
1.22777722826000E-05 1.25885855677000E-05 1.29072671286000E-05 1.32340161516000E-05 
1.35690368655000E-05 1.39125386692000E-05 1.42647362624000E-05 1.46258497801000E-05 
1.49961049301000E-05 1.53757331338000E-05 1.57649716712000E-05 1.61640638291000E-05 
1.65732590531000E-05 1.69928131035000E-05 1.74229882153000E-05 1.78640532619000E-05 
1.83162839233000E-05 1.87799628583000E-05 1.92553798815000E-05 1.97428321440000E-05 
2.02426243192000E-05 2.07550687936000E-05 2.12804858616000E-05 2.18192039260000E-05 
2.23715597031000E-05 2.29378984333000E-05 2.35185740967000E-05 2.41139496346000E-05 
2.47243971759000E-05 2.53502982703000E-05 2.59920441263000E-05 2.66500358561000E-05 
2.73246847257000E-05 2.80164124129000E-05 2.87256512697000E-05 2.94528445938000E-05 
3.01984469045000E-05 3.09629242275000E-05 3.17467543861000E-05 3.25504272996000E-05 
3.33744452899000E-05 3.42193233948000E-05 3.50855896908000E-05 3.59737856225000E-05 
3.68844663413000E-05 3.78182010522000E-05 3.87755733698000E-05 3.97571816831000E-05 
4.07636395291000E-05 4.17955759768000E-05 4.28536360200000E-05 4.39384809808000E-05 
4.50507889225000E-05 4.61912550738000E-05 4.73605922631000E-05 4.85595313644000E-05 
4.97888217535000E-05 5.10492317769000E-05 5.23415492321000E-05 5.36665818593000E-05 
5.50251578472000E-05 5.64181263500000E-05 5.78463580183000E-05 5.93107455434000E-05 
6.08122042153000E-05 6.23516724943000E-05 6.39301125984000E-05 6.55485111040000E-05 
6.72078795628000E-05 6.89092551341000E-05 7.06537012331000E-05 7.24423081953000E-05 