<UPF version="2.0.1">
  <PP_INFO>
Generated using Vanderbilt code, version   7  3  6
Author: kfg        Generation date:    3    2 2014
Automatically converted from original format
0        The Pseudo was generated with a Non-Relativistic Calculation
1.30000000000E+00    Local Potential cutoff radius
nl pn  l   occ               Rcut            Rcut US             E pseu
2S  2  0  2.00      0.00000000000      1.30000000000     -1.00225144800
2P  2  1  2.00      0.00000000000      1.30000000000     -0.38489618600
</PP_INFO>
  <PP_HEADER element="C" pseudo_type="US" relativistic="scalar" is_ultrasoft="T" is_paw="F" is_coulomb="F" has_so="F" has_wfc="F" has_gipaw="F" core_correction="T" functional="PBESOL" z_valence="4.0" total_psenergy="-10.7670220492" wfc_cutoff="0.0" rho_cutoff="0.0" l_max="1" mesh_size="721" number_of_wfc="2" number_of_proj="4"/>
  <PP_MESH>
    <PP_R>
0.00000000000000E+00 7.06180151333000E-06 1.42443146680000E-05 2.15496028610000E-05 
2.89797647603000E-05 3.65369349077000E-05 4.42232843318000E-05 5.20410211722000E-05 
5.99923913133000E-05 6.80796790299000E-05 7.63052076433000E-05 8.46713401887000E-05 
9.31804800941000E-05 1.01835071871000E-04 1.10637601815000E-04 1.19590598724000E-04 
1.28696634621000E-04 1.37958325492000E-04 1.47378332043000E-04 1.56959360459000E-04 
1.66704163185000E-04 1.76615539714000E-04 1.86696337391000E-04 1.96949452236000E-04 
2.07377829770000E-04 2.17984465864000E-04 2.28772407599000E-04 2.39744754143000E-04 
2.50904657637000E-04 2.62255324107000E-04 2.73800014379000E-04 2.85542045019000E-04 
2.97484789285000E-04 3.09631678098000E-04 3.21986201022000E-04 3.34551907273000E-04 
3.47332406736000E-04 3.60331371001000E-04 3.73552534418000E-04 3.86999695173000E-04 
4.00676716373000E-04 4.14587527163000E-04 4.28736123849000E-04 4.43126571050000E-04 
4.57763002861000E-04 4.72649624048000E-04 4.87790711249000E-04 5.03190614203000E-04 
5.18853757007000E-04 5.34784639377000E-04 5.50987837948000E-04 5.67468007585000E-04 
5.84229882722000E-04 6.01278278721000E-04 6.18618093257000E-04 6.36254307723000E-04 
6.54191988661000E-04 6.72436289222000E-04 6.90992450638000E-04 7.09865803737000E-04 
7.29061770466000E-04 7.48585865457000E-04 7.68443697604000E-04 7.88640971677000E-04 
8.09183489964000E-04 8.30077153930000E-04 8.51327965923000E-04 8.72942030889000E-04 
8.94925558131000E-04 9.17284863090000E-04 9.40026369163000E-04 9.63156609543000E-04 
9.86682229102000E-04 1.01060998630000E-03 1.03494675510000E-03 1.05969952701000E-03 
1.08487541301000E-03 1.11048164564000E-03 1.13652558108000E-03 1.16301470125000E-03 
1.18995661596000E-03 1.21735906511000E-03 1.24522992088000E-03 1.27357719003000E-03 
1.30240901618000E-03 1.33173368217000E-03 1.36155961239000E-03 1.39189537527000E-03 
1.42274968567000E-03 1.45413140745000E-03 1.48604955597000E-03 1.51851330069000E-03 
1.55153196782000E-03 1.58511504299000E-03 1.61927217395000E-03 1.65401317340000E-03 
1.68934802175000E-03 1.72528687002000E-03 1.76184004274000E-03 1.79901804094000E-03 
1.83683154513000E-03 1.87529141840000E-03 1.91440870953000E-03 1.95419465616000E-03 
1.99466068802000E-03 2.03581843021000E-03 2.07767970658000E-03 2.12025654304000E-03 
2.16356117109000E-03 2.20760603133000E-03 2.25240377699000E-03 2.29796727758000E-03 
2.34430962263000E-03 2.39144412539000E-03 2.43938432670000E-03 2.48814399884000E-03 
2.53773714952000E-03 2.58817802591000E-03 2.63948111868000E-03 2.69166116622000E-03 
2.74473315885000E-03 2.79871234313000E-03 2.85361422623000E-03 2.90945458039000E-03 
2.96624944748000E-03 3.02401514356000E-03 3.08276826360000E-03 3.14252568623000E-03 
3.20330457859000E-03 3.26512240130000E-03 3.32799691342000E-03 3.39194617757000E-03 
3.45698856514000E-03 3.52314276156000E-03 3.59042777163000E-03 3.65886292505000E-03 
3.72846788191000E-03 3.79926263836000E-03 3.87126753238000E-03 3.94450324956000E-03 
4.01899082913000E-03 4.09475166991000E-03 4.17180753653000E-03 4.25018056564000E-03 
4.32989327232000E-03 4.41096855646000E-03 4.49342970944000E-03 4.57730042075000E-03 
4.66260478481000E-03 4.74936730793000E-03 4.83761291529000E-03 4.92736695815000E-03 
5.01865522111000E-03 5.11150392953000E-03 5.20593975703000E-03 5.30198983321000E-03 
5.39968175139000E-03 5.49904357658000E-03 5.60010385349000E-03 5.70289161480000E-03 
5.80743638944000E-03 5.91376821109000E-03 6.02191762684000E-03 6.13191570591000E-03 
6.24379404863000E-03 6.35758479548000E-03 6.47332063634000E-03 6.59103481988000E-03 
6.71076116310000E-03 6.83253406107000E-03 6.95638849678000E-03 7.08236005122000E-03 
7.21048491357000E-03 7.34079989163000E-03 7.47334242237000E-03 7.60815058269000E-03 
7.74526310038000E-03 7.88471936520000E-03 8.02655944024000E-03 8.17082407341000E-03 
8.31755470914000E-03 8.46679350032000E-03 8.61858332035000E-03 8.77296777551000E-03 
8.92999121747000E-03 9.08969875603000E-03 9.25213627207000E-03 9.41735043075000E-03 
9.58538869490000E-03 9.75629933865000E-03 9.93013146133000E-03 1.01069350016000E-02 
1.02867607515000E-02 1.04696603718000E-02 1.06556864057000E-02 1.08448922951000E-02 
1.10373323951000E-02 1.12330619901000E-02 1.14321373093000E-02 1.16346155433000E-02 
1.18405548601000E-02 1.20500144221000E-02 1.22630544030000E-02 1.24797360050000E-02 
1.27001214767000E-02 1.29242741304000E-02 1.31522583609000E-02 1.33841396636000E-02 
1.36199846535000E-02 1.38598610845000E-02 1.41038378682000E-02 1.43519850946000E-02 
1.46043740515000E-02 1.48610772453000E-02 1.51221684220000E-02 1.53877225880000E-02 
1.56578160319000E-02 1.59325263462000E-02 1.62119324499000E-02 1.64961146111000E-02 
1.67851544697000E-02 1.70791350612000E-02 1.73781408408000E-02 1.76822577068000E-02 
1.79915730262000E-02 1.83061756593000E-02 1.86261559854000E-02 1.89516059285000E-02 
1.92826189843000E-02 1.96192902462000E-02 1.99617164336000E-02 2.03099959187000E-02 
2.06642287555000E-02 2.10245167083000E-02 2.13909632809000E-02 2.17636737461000E-02 
2.21427551767000E-02 2.25283164752000E-02 2.29204684060000E-02 2.33193236268000E-02 
2.37249967210000E-02 2.41376042305000E-02 2.45572646896000E-02 2.49840986585000E-02 
2.54182287584000E-02 2.58597797065000E-02 2.63088783519000E-02 2.67656537118000E-02 
2.72302370090000E-02 2.77027617093000E-02 2.81833635599000E-02 2.86721806284000E-02 
2.91693533424000E-02 2.96750245302000E-02 3.01893394612000E-02 3.07124458881000E-02 
3.12444940894000E-02 3.17856369121000E-02 3.23360298162000E-02 3.28958309188000E-02 
3.34652010400000E-02 3.40443037488000E-02 3.46333054102000E-02 3.52323752330000E-02 
3.58416853183000E-02 3.64614107092000E-02 3.70917294408000E-02 3.77328225914000E-02 
3.83848743346000E-02 3.90480719925000E-02 3.97226060887000E-02 4.04086704038000E-02 
4.11064620310000E-02 4.18161814322000E-02 4.25380324961000E-02 4.32722225965000E-02 
4.40189626520000E-02 4.47784671866000E-02 4.55509543912000E-02 4.63366461865000E-02 
4.71357682865000E-02 4.79485502636000E-02 4.87752256142000E-02 4.96160318262000E-02 
5.04712104470000E-02 5.13410071528000E-02 5.22256718194000E-02 5.31254585938000E-02 
5.40406259673000E-02 5.49714368499000E-02 5.59181586455000E-02 5.68810633289000E-02 
5.78604275241000E-02 5.88565325833000E-02 5.98696646684000E-02 6.09001148325000E-02 
6.19481791040000E-02 6.30141585716000E-02 6.40983594705000E-02 6.52010932706000E-02 
6.63226767660000E-02 6.74634321660000E-02 6.86236871875000E-02 6.98037751494000E-02 
7.10040350680000E-02 7.22248117548000E-02 7.34664559153000E-02 7.47293242499000E-02 
7.60137795562000E-02 7.73201908334000E-02 7.86489333881000E-02 8.00003889424000E-02 
8.13749457432000E-02 8.27729986742000E-02 8.41949493690000E-02 8.56412063263000E-02 
8.71121850280000E-02 8.86083080576000E-02 9.01300052224000E-02 9.16777136765000E-02 
9.32518780467000E-02 9.48529505598000E-02 9.64813911731000E-02 9.81376677059000E-02 
9.98222559746000E-02 1.01535639929000E-01 1.03278311790000E-01 1.05050772195000E-01 
1.06853530337000E-01 1.08687104114000E-01 1.10552020275000E-01 1.12448814575000E-01 
1.14378031927000E-01 1.16340226556000E-01 1.18335962165000E-01 1.20365812088000E-01 
1.22430359463000E-01 1.24530197394000E-01 1.26665929124000E-01 1.28838168207000E-01 
1.31047538686000E-01 1.33294675270000E-01 1.35580223517000E-01 1.37904840022000E-01 
1.40269192602000E-01 1.42673960489000E-01 1.45119834528000E-01 1.47607517369000E-01 
1.50137723677000E-01 1.52711180331000E-01 1.55328626634000E-01 1.57990814529000E-01 
1.60698508811000E-01 1.63452487348000E-01 1.66253541304000E-01 1.69102475368000E-01 
1.72000107985000E-01 1.74947271586000E-01 1.77944812837000E-01 1.80993592872000E-01 
1.84094487546000E-01 1.87248387687000E-01 1.90456199350000E-01 1.93718844076000E-01 
1.97037259161000E-01 2.00412397920000E-01 2.03845229965000E-01 2.07336741484000E-01 
2.10887935519000E-01 2.14499832260000E-01 2.18173469335000E-01 2.21909902109000E-01 
2.25710203987000E-01 2.29575466721000E-01 2.33506800728000E-01 2.37505335403000E-01 
2.41572219447000E-01 2.45708621199000E-01 2.49915728965000E-01 2.54194751368000E-01 
2.58546917686000E-01 2.62973478214000E-01 2.67475704616000E-01 2.72054890295000E-01 
2.76712350763000E-01 2.81449424017000E-01 2.86267470928000E-01 2.91167875626000E-01 
2.96152045904000E-01 3.01221413616000E-01 3.06377435095000E-01 3.11621591564000E-01 
3.16955389570000E-01 3.22380361409000E-01 3.27898065571000E-01 3.33510087184000E-01 
3.39218038475000E-01 3.45023559227000E-01 3.50928317254000E-01 3.56934008879000E-01 
3.63042359420000E-01 3.69255123689000E-01 3.75574086492000E-01 3.82001063146000E-01 
3.88537899996000E-01 3.95186474950000E-01 4.01948698013000E-01 4.08826511842000E-01 
4.15821892299000E-01 4.22936849023000E-01 4.30173426002000E-01 4.37533702165000E-01 
4.45019791977000E-01 4.52633846047000E-01 4.60378051745000E-01 4.68254633831000E-01 
4.76265855095000E-01 4.84414017007000E-01 4.92701460374000E-01 5.01130566020000E-01 
5.09703755463000E-01 5.18423491615000E-01 5.27292279486000E-01 5.36312666909000E-01 
5.45487245267000E-01 5.54818650237000E-01 5.64309562551000E-01 5.73962708767000E-01 
5.83780862044000E-01 5.93766842950000E-01 6.03923520263000E-01 6.14253811799000E-01 
6.24760685253000E-01 6.35447159044000E-01 6.46316303191000E-01 6.57371240187000E-01 
6.68615145904000E-01 6.80051250496000E-01 6.91682839336000E-01 7.03513253954000E-01 
7.15545892999000E-01 7.27784213216000E-01 7.40231730437000E-01 7.52892020593000E-01 
7.65768720740000E-01 7.78865530106000E-01 7.92186211149000E-01 8.05734590644000E-01 
8.19514560779000E-01 8.33530080271000E-01 8.47785175509000E-01 8.62283941705000E-01 
8.77030544075000E-01 8.92029219032000E-01 9.07284275405000E-01 9.22800095676000E-01 
9.38581137241000E-01 9.54631933687000E-01 9.70957096097000E-01 9.87561314376000E-01 
1.00444935859000E+00 1.02162608036000E+00 1.03909641421000E+00 1.05686537903000E+00 
1.07493807951000E+00 1.09331970758000E+00 1.11201554394000E+00 1.13103095952000E+00 
1.15037141709000E+00 1.17004247279000E+00 1.19004977774000E+00 1.21039907964000E+00 
1.23109622446000E+00 1.25214715808000E+00 1.27355792804000E+00 1.29533468523000E+00 
1.31748368568000E+00 1.34001129239000E+00 1.36292397710000E+00 1.38622832218000E+00 
1.40993102251000E+00 1.43403888742000E+00 1.45855884264000E+00 1.48349793227000E+00 
1.50886332083000E+00 1.53466229531000E+00 1.56090226726000E+00 1.58759077490000E+00 
1.61473548534000E+00 1.64234419671000E+00 1.67042484048000E+00 1.69898548366000E+00 
1.72803433118000E+00 1.75757972820000E+00 1.78763016256000E+00 1.81819426715000E+00 
1.84928082245000E+00 1.88089875903000E+00 1.91305716011000E+00 1.94576526417000E+00 
1.97903246763000E+00 2.01286832750000E+00 2.04728256417000E+00 2.08228506419000E+00 
2.11788588310000E+00 2.15409524833000E+00 2.19092356211000E+00 2.22838140453000E+00 
2.26647953648000E+00 2.30522890283000E+00 2.34464063551000E+00 2.38472605677000E+00 
2.42549668235000E+00 2.46696422488000E+00 2.50914059718000E+00 2.55203791570000E+00 
2.59566850401000E+00 2.64004489634000E+00 2.68517984116000E+00 2.73108630487000E+00 
2.77777747552000E+00 2.82526676656000E+00 2.87356782075000E+00 2.92269451406000E+00 
2.97266095963000E+00 3.02348151185000E+00 3.07517077048000E+00 3.12774358485000E+00 
3.18121505812000E+00 3.23560055159000E+00 3.29091568917000E+00 3.34717636184000E+00 
3.40439873218000E+00 3.46259923908000E+00 3.52179460242000E+00 3.58200182789000E+00 
3.64323821185000E+00 3.70552134633000E+00 3.76886912407000E+00 3.83329974366000E+00 
3.89883171478000E+00 3.96548386348000E+00 4.03327533764000E+00 4.10222561245000E+00 
4.17235449597000E+00 4.24368213489000E+00 4.31622902025000E+00 4.39001599336000E+00 
4.46506425180000E+00 4.54139535549000E+00 4.61903123286000E+00 4.69799418720000E+00 
4.77830690305000E+00 4.85999245269000E+00 4.94307430280000E+00 5.02757632118000E+00 
5.11352278364000E+00 5.20093838093000E+00 5.28984822585000E+00 5.38027786049000E+00 
5.47225326353000E+00 5.56580085772000E+00 5.66094751747000E+00 5.75772057659000E+00 
5.85614783610000E+00 5.95625757224000E+00 6.05807854460000E+00 6.16164000439000E+00 
6.26697170280000E+00 6.37410389959000E+00 6.48306737176000E+00 6.59389342243000E+00 
6.70661388976000E+00 6.82126115617000E+00 6.93786815759000E+00 7.05646839296000E+00 
7.17709593384000E+00 7.29978543417000E+00 7.42457214029000E+00 7.55149190100000E+00 
7.68058117788000E+00 7.81187705580000E+00 7.94541725351000E+00 8.08124013453000E+00 
8.21938471814000E+00 8.35989069061000E+00 8.50279841659000E+00 8.64814895071000E+00 
8.79598404935000E+00 8.94634618268000E+00 9.09927854683000E+00 9.25482507631000E+00 
9.41303045663000E+00 9.57394013714000E+00 9.73760034406000E+00 9.90405809382000E+00 
1.00733612065000E+01 1.02455583196000E+01 1.04206989020000E+01 1.05988332683000E+01 
1.07800125929000E+01 1.09642889253000E+01 1.11517152044000E+01 1.13423452741000E+01 
1.15362338988000E+01 1.17334367790000E+01 1.19340105672000E+01 1.21380128844000E+01 
1.23455023365000E+01 1.25565385312000E+01 1.27711820951000E+01 1.29894946912000E+01 
1.32115390364000E+01 1.34373789198000E+01 1.36670792209000E+01 1.39007059280000E+01 
1.41383261576000E+01 1.43800081734000E+01 1.46258214060000E+01 1.48758364728000E+01 
1.51301251982000E+01 1.53887606344000E+01 1.56518170825000E+01 1.59193701134000E+01 
1.61914965900000E+01 1.64682746890000E+01 1.67497839232000E+01 1.70361051650000E+01 
1.73273206688000E+01 1.76235140951000E+01 1.79247705348000E+01 1.82311765328000E+01 
1.85428201138000E+01 1.88597908068000E+01 1.91821796715000E+01 1.95100793239000E+01 
1.98435839632000E+01 2.01827893988000E+01 2.05277930780000E+01 2.08786941137000E+01 
2.12355933127000E+01 2.15985932055000E+01 2.19677980749000E+01 2.23433139862000E+01 
2.27252488180000E+01 2.31137122927000E+01 2.35088160083000E+01 2.39106734706000E+01 
2.43194001253000E+01 2.47351133917000E+01 2.51579326963000E+01 2.55879795068000E+01 
2.60253773673000E+01 2.64702519339000E+01 2.69227310102000E+01 2.73829445849000E+01 
2.78510248684000E+01 2.83271063311000E+01 2.88113257419000E+01 2.93038222078000E+01 
2.98047372134000E+01 3.03142146620000E+01 3.08324009165000E+01 3.13594448418000E+01 
3.18954978476000E+01 3.24407139313000E+01 3.29952497230000E+01 3.35592645302000E+01 
3.41329203834000E+01 3.47163820828000E+01 3.53098172456000E+01 3.59133963544000E+01 
3.65272928057000E+01 3.71516829600000E+01 3.77867461926000E+01 3.84326649449000E+01 
3.90896247768000E+01 3.97578144201000E+01 4.04374258329000E+01 4.11286542543000E+01 
4.18316982608000E+01 4.25467598235000E+01 4.32740443657000E+01 4.40137608221000E+01 
4.47661216989000E+01 4.55313431350000E+01 4.63096449635000E+01 4.71012507756000E+01 
4.79063879842000E+01 4.87252878898000E+01 4.95581857464000E+01 5.04053208295000E+01 
5.12669365045000E+01 5.21432802970000E+01 5.30346039636000E+01 5.39411635644000E+01 
5.48632195363000E+01 5.58010367682000E+01 5.67548846769000E+01 5.77250372844000E+01 
5.87117732967000E+01 5.97153761841000E+01 6.07361342621000E+01 6.17743407750000E+01 
6.28302939792000E+01 6.39042972298000E+01 6.49966590670000E+01 6.61076933054000E+01 
6.72377191234000E+01 6.83870611558000E+01 6.95560495861000E+01 7.07450202422000E+01 
7.19543146924000E+01 7.31842803434000E+01 7.44352705407000E+01 7.57076446695000E+01 
7.70017682583000E+01 7.83180130838000E+01 7.96567572776000E+01 8.10183854350000E+01 
8.24032887255000E+01 
</PP_R>
    <PP_RAB>
7.00212479284000E-06 7.12181634392000E-06 7.24355385501000E-06 7.36737229896000E-06 
7.49330724641000E-06 7.62139487602000E-06 7.75167198491000E-06 7.88417599915000E-06 
8.01894498459000E-06 8.15601765776000E-06 8.29543339697000E-06 8.43723225367000E-06 
8.58145496393000E-06 8.72814296014000E-06 8.87733838293000E-06 9.02908409325000E-06 
9.18342368472000E-06 9.34040149610000E-06 9.50006262408000E-06 9.66245293622000E-06 
9.82761908412000E-06 9.99560851680000E-06 1.01664694944000E-05 1.03402511019000E-05 
1.05170032635000E-05 1.06967767566000E-05 1.08796232267000E-05 1.10655952020000E-05 
1.12547461087000E-05 1.14471302862000E-05 1.16428030027000E-05 1.18418204711000E-05 
1.20442398655000E-05 1.22501193369000E-05 1.24595180305000E-05 1.26724961026000E-05 
1.28891147375000E-05 1.31094361657000E-05 1.33335236813000E-05 1.35614416602000E-05 
1.37932555788000E-05 1.40290320329000E-05 1.42688387564000E-05 1.45127446411000E-05 
1.47608197566000E-05 1.50131353699000E-05 1.52697639665000E-05 1.55307792709000E-05 
1.57962562675000E-05 1.60662712230000E-05 1.63409017072000E-05 1.66202266163000E-05 
1.69043261949000E-05 1.71932820593000E-05 1.74871772209000E-05 1.77860961102000E-05 
1.80901246007000E-05 1.83993500339000E-05 1.87138612443000E-05 1.90337485850000E-05 
1.93591039533000E-05 1.96900208175000E-05 2.00265942438000E-05 2.03689209230000E-05 
2.07170991990000E-05 2.10712290967000E-05 2.14314123509000E-05 2.17977524350000E-05 
2.21703545917000E-05 2.25493258622000E-05 2.29347751176000E-05 2.33268130902000E-05 
2.37255524047000E-05 2.41311076114000E-05 2.45435952183000E-05 2.49631337252000E-05 
2.53898436573000E-05 2.58238476003000E-05 2.62652702349000E-05 2.67142383734000E-05 
2.71708809956000E-05 2.76353292862000E-05 2.81077166721000E-05 2.85881788611000E-05 
2.90768538807000E-05 2.95738821177000E-05 3.00794063588000E-05 3.05935718313000E-05 
3.11165262449000E-05 3.16484198344000E-05 3.21894054025000E-05 3.27396383639000E-05 
3.32992767899000E-05 3.38684814537000E-05 3.44474158768000E-05 3.50362463759000E-05 
3.56351421107000E-05 3.62442751322000E-05 3.68638204326000E-05 3.74939559952000E-05 
3.81348628459000E-05 3.87867251047000E-05 3.94497300391000E-05 4.01240681175000E-05 
4.08099330643000E-05 4.15075219151000E-05 4.22170350738000E-05 4.29386763697000E-05 
4.36726531165000E-05 4.44191761713000E-05 4.51784599960000E-05 4.59507227180000E-05 
4.67361861934000E-05 4.75350760707000E-05 4.83476218555000E-05 4.91740569765000E-05 
5.00146188526000E-05 5.08695489608000E-05 5.17390929060000E-05 5.26235004915000E-05 
5.35230257903000E-05 5.44379272187000E-05 5.53684676102000E-05 5.63149142910000E-05 
5.72775391570000E-05 5.82566187516000E-05 5.92524343454000E-05 6.02652720170000E-05 
6.12954227351000E-05 6.23431824421000E-05 6.34088521389000E-05 6.44927379720000E-05 
6.55951513207000E-05 6.67164088870000E-05 6.78568327866000E-05 6.90167506412000E-05 
7.01964956727000E-05 7.13964067990000E-05 7.26168287315000E-05 7.38581120736000E-05 
7.51206134221000E-05 7.64046954692000E-05 7.77107271068000E-05 7.90390835326000E-05 
8.03901463576000E-05 8.17643037160000E-05 8.31619503766000E-05 8.45834878563000E-05 
8.60293245354000E-05 8.74998757746000E-05 8.89955640350000E-05 9.05168189987000E-05 
9.20640776930000E-05 9.36377846153000E-05 9.52383918612000E-05 9.68663592540000E-05 
9.85221544775000E-05 1.00206253209000E-04 1.01919139259000E-04 1.03661304705000E-04 
1.05433250038000E-04 1.07235484303000E-04 1.09068525248000E-04 1.10932899469000E-04 
1.12829142566000E-04 1.14757799293000E-04 1.16719423714000E-04 1.18714579367000E-04 
1.20743839422000E-04 1.22807786845000E-04 1.24907014569000E-04 1.27042125661000E-04 
1.29213733497000E-04 1.31422461939000E-04 1.33668945511000E-04 1.35953829584000E-04 
1.38277770562000E-04 1.40641436067000E-04 1.43045505136000E-04 1.45490668410000E-04 
1.47977628338000E-04 1.50507099375000E-04 1.53079808189000E-04 1.55696493869000E-04 
1.58357908140000E-04 1.61064815573000E-04 1.63817993811000E-04 1.66618233789000E-04 
1.69466339961000E-04 1.72363130533000E-04 1.75309437697000E-04 1.78306107870000E-04 
1.81354001938000E-04 1.84453995501000E-04 1.87606979127000E-04 1.90813858609000E-04 
1.94075555219000E-04 1.97393005981000E-04 2.00767163934000E-04 2.04198998408000E-04 
2.07689495303000E-04 2.11239657371000E-04 2.14850504505000E-04 2.18523074031000E-04 
2.22258421008000E-04 2.26057618528000E-04 2.29921758028000E-04 2.33851949599000E-04 
2.37849322311000E-04 2.41915024530000E-04 2.46050224254000E-04 2.50256109447000E-04 
2.54533888377000E-04 2.58884789968000E-04 2.63310064149000E-04 2.67810982217000E-04 
2.72388837197000E-04 2.77044944219000E-04 2.81780640893000E-04 2.86597287692000E-04 
2.91496268346000E-04 2.96478990238000E-04 3.01546884806000E-04 3.06701407958000E-04 
3.11944040491000E-04 3.17276288510000E-04 3.22699683867000E-04 3.28215784598000E-04 
3.33826175374000E-04 3.39532467949000E-04 3.45336301633000E-04 3.51239343753000E-04 
3.57243290140000E-04 3.63349865612000E-04 3.69560824468000E-04 3.75877950998000E-04 
3.82303059990000E-04 3.88837997254000E-04 3.95484640149000E-04 4.02244898129000E-04 
4.09120713284000E-04 4.16114060903000E-04 4.23226950040000E-04 4.30461424089000E-04 
4.37819561376000E-04 4.45303475751000E-04 4.52915317198000E-04 4.60657272450000E-04 
4.68531565623000E-04 4.76540458849000E-04 4.84686252926000E-04 4.92971287985000E-04 
5.01397944156000E-04 5.09968642254000E-04 5.18685844474000E-04 5.27552055100000E-04 
5.36569821223000E-04 5.45741733473000E-04 5.55070426762000E-04 5.64558581044000E-04 
5.74208922081000E-04 5.84024222230000E-04 5.94007301237000E-04 6.04161027047000E-04 
6.14488316629000E-04 6.24992136814000E-04 6.35675505145000E-04 6.46541490748000E-04 
6.57593215210000E-04 6.68833853478000E-04 6.80266634770000E-04 6.91894843502000E-04 
7.03721820234000E-04 7.15750962627000E-04 7.27985726422000E-04 7.40429626428000E-04 
7.53086237538000E-04 7.65959195751000E-04 7.79052199220000E-04 7.92369009310000E-04 
8.05913451683000E-04 8.19689417396000E-04 8.33700864016000E-04 8.47951816762000E-04 
8.62446369657000E-04 8.77188686704000E-04 8.92183003087000E-04 9.07433626382000E-04 
9.22944937799000E-04 9.38721393436000E-04 9.54767525564000E-04 9.71087943927000E-04 
9.87687337065000E-04 1.00457047366000E-03 1.02174220392000E-03 1.03920746094000E-03 
1.05697126215000E-03 1.07503871075000E-03 1.09341499717000E-03 1.11210540057000E-03 
1.13111529032000E-03 1.15045012761000E-03 1.17011546695000E-03 1.19011695783000E-03 
1.21046034628000E-03 1.23115147657000E-03 1.25219629285000E-03 1.27360084089000E-03 
1.29537126981000E-03 1.31751383383000E-03 1.34003489408000E-03 1.36294092043000E-03 
1.38623849332000E-03 1.40993430571000E-03 1.43403516494000E-03 1.45854799473000E-03 
1.48347983713000E-03 1.50883785458000E-03 1.53462933195000E-03 1.56086167863000E-03 
1.58754243067000E-03 1.61467925293000E-03 1.64227994129000E-03 1.67035242489000E-03 
1.69890476843000E-03 1.72794517443000E-03 1.75748198565000E-03 1.78752368742000E-03 
1.81807891017000E-03 1.84915643180000E-03 1.88076518030000E-03 1.91291423623000E-03 
1.94561283541000E-03 1.97887037151000E-03 2.01269639877000E-03 2.04710063476000E-03 
2.08209296315000E-03 2.11768343656000E-03 2.15388227944000E-03 2.19069989102000E-03 
2.22814684829000E-03 2.26623390903000E-03 2.30497201491000E-03 2.34437229466000E-03 
2.38444606720000E-03 2.42520484495000E-03 2.46666033713000E-03 2.50882445309000E-03 
2.55170930576000E-03 2.59532721514000E-03 2.63969071181000E-03 2.68481254054000E-03 
2.73070566396000E-03 2.77738326628000E-03 2.82485875706000E-03 2.87314577510000E-03 
2.92225819233000E-03 2.97221011778000E-03 3.02301590169000E-03 3.07469013957000E-03 
3.12724767642000E-03 3.18070361102000E-03 3.23507330022000E-03 3.29037236337000E-03 
3.34661668684000E-03 3.40382242852000E-03 3.46200602251000E-03 3.52118418384000E-03 
3.58137391325000E-03 3.64259250209000E-03 3.70485753726000E-03 3.76818690631000E-03 
3.83259880254000E-03 3.89811173024000E-03 3.96474451001000E-03 4.03251628416000E-03 
4.10144652220000E-03 4.17155502646000E-03 4.24286193776000E-03 4.31538774119000E-03 
4.38915327202000E-03 4.46417972164000E-03 4.54048864371000E-03 4.61810196031000E-03 
4.69704196823000E-03 4.77733134542000E-03 4.85899315747000E-03 4.94205086422000E-03 
5.02652832655000E-03 5.11244981320000E-03 5.19984000775000E-03 5.28872401572000E-03 
5.37912737175000E-03 5.47107604699000E-03 5.56459645650000E-03 5.65971546690000E-03 
5.75646040403000E-03 5.85485906084000E-03 5.95493970537000E-03 6.05673108884000E-03 
6.16026245394000E-03 6.26556354325000E-03 6.37266460771000E-03 6.48159641541000E-03 
6.59239026032000E-03 6.70507797139000E-03 6.81969192162000E-03 6.93626503736000E-03 
7.05483080783000E-03 7.17542329467000E-03 7.29807714178000E-03 7.42282758522000E-03 
7.54971046339000E-03 7.67876222729000E-03 7.81001995098000E-03 7.94352134227000E-03 
8.07930475353000E-03 8.21740919270000E-03 8.35787433452000E-03 8.50074053191000E-03 
8.64604882755000E-03 8.79384096572000E-03 8.94415940422000E-03 9.09704732665000E-03 
9.25254865473000E-03 9.41070806101000E-03 9.57157098160000E-03 9.73518362931000E-03 
9.90159300690000E-03 1.00708469206000E-02 1.02429939937000E-02 1.04180836807000E-02 
1.05961662816000E-02 1.07772929560000E-02 1.09615157382000E-02 1.11488875517000E-02 
1.13394622249000E-02 1.15332945061000E-02 1.17304400796000E-02 1.19309555816000E-02 
1.21348986163000E-02 1.23423277725000E-02 1.25533026407000E-02 1.27678838298000E-02 
1.29861329848000E-02 1.32081128045000E-02 1.34338870595000E-02 1.36635206103000E-02 
1.38970794261000E-02 1.41346306040000E-02 1.43762423877000E-02 1.46219841876000E-02 
1.48719266006000E-02 1.51261414304000E-02 1.53847017079000E-02 1.56476817125000E-02 
1.59151569933000E-02 1.61872043907000E-02 1.64639020586000E-02 1.67453294871000E-02 
1.70315675247000E-02 1.73226984020000E-02 1.76188057554000E-02 1.79199746507000E-02 
1.82262916080000E-02 1.85378446262000E-02 1.88547232084000E-02 1.91770183878000E-02 
1.95048227534000E-02 1.98382304772000E-02 2.01773373407000E-02 2.05222407628000E-02 
2.08730398275000E-02 2.12298353126000E-02 2.15927297187000E-02 2.19618272981000E-02 
2.23372340855000E-02 2.27190579281000E-02 2.31074085163000E-02 2.35023974159000E-02 
2.39041380995000E-02 2.43127459793000E-02 2.47283384407000E-02 2.51510348751000E-02 
2.55809567152000E-02 2.60182274691000E-02 2.64629727563000E-02 2.69153203435000E-02 
2.73754001813000E-02 2.78433444420000E-02 2.83192875566000E-02 2.88033662546000E-02 
2.92957196024000E-02 2.97964890435000E-02 3.03058184393000E-02 3.08238541103000E-02 
3.13507448782000E-02 3.18866421083000E-02 3.24316997537000E-02 3.29860743989000E-02 
3.35499253049000E-02 3.41234144553000E-02 3.47067066023000E-02 3.52999693145000E-02 
3.59033730248000E-02 3.65170910795000E-02 3.71412997877000E-02 3.77761784727000E-02 
3.84219095227000E-02 3.90786784439000E-02 3.97466739132000E-02 4.04260878327000E-02 
4.11171153850000E-02 4.18199550889000E-02 4.25348088567000E-02 4.32618820519000E-02 
4.40013835487000E-02 4.47535257915000E-02 4.55185248563000E-02 4.62966005125000E-02 
4.70879762861000E-02 4.78928795241000E-02 4.87115414596000E-02 4.95441972783000E-02 
5.03910861863000E-02 5.12524514781000E-02 5.21285406075000E-02 5.30196052579000E-02 
5.39259014149000E-02 5.48476894399000E-02 5.57852341447000E-02 5.67388048678000E-02 
5.77086755515000E-02 5.86951248211000E-02 5.96984360642000E-02 6.07188975127000E-02 
6.17568023256000E-02 6.28124486727000E-02 6.38861398209000E-02 6.49781842208000E-02 
6.60888955956000E-02 6.72185930312000E-02 6.83676010679000E-02 6.95362497934000E-02 
7.07248749379000E-02 7.19338179704000E-02 7.31634261968000E-02 7.44140528597000E-02 
7.56860572401000E-02 7.69798047601000E-02 7.82956670885000E-02 7.96340222468000E-02 
8.09952547188000E-02 8.23797555602000E-02 8.37879225112000E-02 8.52201601109000E-02 
8.66768798136000E-02 8.81585001066000E-02 8.96654466307000E-02 9.11981523026000E-02 
9.27570574388000E-02 9.43426098827000E-02 9.59552651328000E-02 9.75954864738000E-02 
9.92637451095000E-02 1.00960520298000E-01 1.02686299491000E-01 1.04441578470000E-01 
1.06226861494000E-01 1.08042661440000E-01 1.09889499951000E-01 1.11767907590000E-01 
1.13678423985000E-01 1.15621597992000E-01 1.17597987847000E-01 1.19608161328000E-01 
1.21652695919000E-01 1.23732178975000E-01 1.25847207892000E-01 1.27998390277000E-01 
1.30186344123000E-01 1.32411697986000E-01 1.34675091167000E-01 1.36977173896000E-01 
1.39318607517000E-01 1.41700064678000E-01 1.44122229525000E-01 1.46585797899000E-01 
1.49091477537000E-01 1.51639988272000E-01 1.54232062241000E-01 1.56868444096000E-01 
1.59549891220000E-01 1.62277173941000E-01 1.65051075753000E-01 1.67872393545000E-01 
1.70741937828000E-01 1.73660532966000E-01 1.76629017414000E-01 1.79648243960000E-01 
1.82719079971000E-01 1.85842407638000E-01 1.89019124233000E-01 1.92250142364000E-01 
1.95536390241000E-01 1.98878811938000E-01 2.02278367671000E-01 2.05736034064000E-01 
2.09252804438000E-01 2.12829689094000E-01 2.16467715601000E-01 2.20167929094000E-01 
2.23931392572000E-01 2.27759187206000E-01 2.31652412648000E-01 2.35612187345000E-01 
2.39639648864000E-01 2.43735954217000E-01 2.47902280193000E-01 2.52139823697000E-01 
2.56449802094000E-01 2.60833453556000E-01 2.65292037421000E-01 2.69826834556000E-01 
2.74439147719000E-01 2.79130301938000E-01 2.83901644892000E-01 2.88754547294000E-01 
2.93690403290000E-01 2.98710630856000E-01 3.03816672206000E-01 3.09009994207000E-01 
3.14292088799000E-01 3.19664473427000E-01 3.25128691472000E-01 3.30686312699000E-01 
3.36338933704000E-01 3.42088178376000E-01 3.47935698363000E-01 3.53883173543000E-01 
3.59932312510000E-01 3.66084853066000E-01 3.72342562716000E-01 3.78707239180000E-01 
3.85180710904000E-01 3.91764837594000E-01 3.98461510740000E-01 4.05272654168000E-01 