<UPF version="2.0.1">
  <PP_INFO>
Generated using Vanderbilt code, version   7  3  6
Author: kfg    Generation date:   23    7 2013
Automatically converted from original format
1        The Pseudo was generated with a Scalar-Relativistic Calculation
1.80000000000E+00    Local Potential cutoff radius
nl pn  l   occ               Rcut            Rcut US             E pseu
3S  3  0  2.00      0.00000000000      1.70000000000     -3.45127325800
3P  3  1  6.00      0.00000000000      1.80000000000     -2.05426869200
4S  4  0  2.00      0.00000000000      1.70000000000     -0.27670567800
3D  3  2  0.00      0.00000000000      2.00000000000     -0.14379607100
</PP_INFO>
  <PP_HEADER element="Ca" pseudo_type="US" relativistic="scalar" is_ultrasoft="T" is_paw="F" is_coulomb="F" has_so="F" has_wfc="F" has_gipaw="F" core_correction="T" functional="PBESOL" z_valence="10.0" total_psenergy="-74.6897686291" wfc_cutoff="0.0" rho_cutoff="0.0" l_max="2" mesh_size="845" number_of_wfc="4" number_of_proj="6"/>
  <PP_MESH>
    <PP_R>
0.00000000000000E+00 2.11854045400000E-06 4.27329440039000E-06 6.46488085830000E-06 
8.69392942809000E-06 1.09610804723000E-05 1.32669852995000E-05 1.56123063516000E-05 
1.79977173940000E-05 2.04239037090000E-05 2.28915622930000E-05 2.54014020566000E-05 
2.79541440282000E-05 3.05505215612000E-05 3.31912805446000E-05 3.58771796173000E-05 
3.86089903862000E-05 4.13874976476000E-05 4.42134996129000E-05 4.70878081378000E-05 
5.00112489556000E-05 5.29846619141000E-05 5.60089012174000E-05 5.90848356709000E-05 
6.22133489311000E-05 6.53953397593000E-05 6.86317222798000E-05 7.19234262428000E-05 
7.52713972912000E-05 7.86765972321000E-05 8.21400043136000E-05 8.56626135056000E-05 
8.92454367856000E-05 9.28895034293000E-05 9.65958603066000E-05 1.00365572182000E-04 
1.04199722021000E-04 1.08099411300000E-04 1.12065760326000E-04 1.16099908552000E-04 
1.20203014912000E-04 1.24376258149000E-04 1.28620837155000E-04 1.32937971315000E-04 
1.37328900858000E-04 1.41794887215000E-04 1.46337213375000E-04 1.50957184261000E-04 
1.55656127102000E-04 1.60435391813000E-04 1.65296351384000E-04 1.70240402275000E-04 
1.75268964816000E-04 1.80383483616000E-04 1.85585427977000E-04 1.90876292317000E-04 
1.96257596598000E-04 2.01730886766000E-04 2.07297735191000E-04 2.12959741121000E-04 
2.18718531140000E-04 2.24575759637000E-04 2.30533109281000E-04 2.36592291503000E-04 
2.42755046989000E-04 2.49023146179000E-04 2.55398389777000E-04 2.61882609267000E-04 
2.68477667439000E-04 2.75185458927000E-04 2.82007910749000E-04 2.88946982863000E-04 
2.96004668731000E-04 3.03182995889000E-04 3.10484026531000E-04 3.17909858103000E-04 
3.25462623902000E-04 3.33144493691000E-04 3.40957674324000E-04 3.48904410375000E-04 
3.56986984789000E-04 3.65207719532000E-04 3.73568976263000E-04 3.82073157008000E-04 
3.90722704854000E-04 3.99520104650000E-04 4.08467883717000E-04 4.17568612580000E-04 
4.26824905702000E-04 4.36239422236000E-04 4.45814866792000E-04 4.55553990208000E-04 
4.65459590347000E-04 4.75534512897000E-04 4.85781652186000E-04 4.96203952021000E-04 
5.06804406526000E-04 5.17586061006000E-04 5.28552012823000E-04 5.39705412282000E-04 
5.51049463539000E-04 5.62587425520000E-04 5.74322612858000E-04 5.86258396847000E-04 
5.98398206405000E-04 6.10745529064000E-04 6.23303911973000E-04 6.36076962911000E-04 
6.49068351328000E-04 6.62281809400000E-04 6.75721133096000E-04 6.89390183274000E-04 
7.03292886789000E-04 7.17433237618000E-04 7.31815298009000E-04 7.46443199651000E-04 
7.61321144857000E-04 7.76453407772000E-04 7.91844335603000E-04 8.07498349866000E-04 
8.23419947655000E-04 8.39613702938000E-04 8.56084267868000E-04 8.72836374118000E-04 
8.89874834245000E-04 9.07204543069000E-04 9.24830479080000E-04 9.42757705868000E-04 
9.60991373578000E-04 9.79536720391000E-04 9.98399074026000E-04 1.01758385327000E-03 
1.03709656954000E-03 1.05694282847000E-03 1.07712833149000E-03 1.09765887752000E-03 
1.11854036457000E-03 1.13977879151000E-03 1.16138025971000E-03 1.18335097487000E-03 
1.20569724874000E-03 1.22842550097000E-03 1.25154226096000E-03 1.27505416969000E-03 
1.29896798170000E-03 1.32329056694000E-03 1.34802891283000E-03 1.37319012622000E-03 
1.39878143544000E-03 1.42481019238000E-03 1.45128387459000E-03 1.47821008744000E-03 
1.50559656633000E-03 1.53345117886000E-03 1.56178192711000E-03 1.59059694996000E-03 
1.61990452542000E-03 1.64971307297000E-03 1.68003115605000E-03 1.71086748444000E-03 
1.74223091683000E-03 1.77413046333000E-03 1.80657528805000E-03 1.83957471177000E-03 
1.87313821459000E-03 1.90727543864000E-03 1.94199619090000E-03 1.97731044596000E-03 
2.01322834893000E-03 2.04976021832000E-03 2.08691654903000E-03 2.12470801536000E-03 
2.16314547407000E-03 2.20223996749000E-03 2.24200272671000E-03 2.28244517481000E-03 
2.32357893011000E-03 2.36541580956000E-03 2.40796783207000E-03 2.45124722202000E-03 
2.49526641274000E-03 2.54003805010000E-03 2.58557499610000E-03 2.63189033265000E-03 
2.67899736524000E-03 2.72690962681000E-03 2.77564088162000E-03 2.82520512923000E-03 
2.87561660847000E-03 2.92688980159000E-03 2.97903943840000E-03 3.03208050047000E-03 
3.08602822546000E-03 3.14089811153000E-03 3.19670592172000E-03 3.25346768854000E-03 
3.31119971854000E-03 3.36991859703000E-03 3.42964119280000E-03 3.49038466299000E-03 
3.55216645803000E-03 3.61500432663000E-03 3.67891632090000E-03 3.74392080151000E-03 
3.81003644300000E-03 3.87728223911000E-03 3.94567750826000E-03 4.01524189907000E-03 
4.08599539606000E-03 4.15795832534000E-03 4.23115136047000E-03 4.30559552838000E-03 
4.38131221544000E-03 4.45832317360000E-03 4.53665052661000E-03 4.61631677640000E-03 
4.69734480956000E-03 4.77975790385000E-03 4.86357973498000E-03 4.94883438332000E-03 
5.03554634090000E-03 5.12374051837000E-03 5.21344225223000E-03 5.30467731203000E-03 
5.39747190786000E-03 5.49185269779000E-03 5.58784679561000E-03 5.68548177856000E-03 
5.78478569528000E-03 5.88578707387000E-03 5.98851493007000E-03 6.09299877560000E-03 
6.19926862665000E-03 6.30735501249000E-03 6.41728898426000E-03 6.52910212384000E-03 
6.64282655300000E-03 6.75849494256000E-03 6.87614052181000E-03 6.99579708805000E-03 
7.11749901629000E-03 7.24128126915000E-03 7.36717940687000E-03 7.49522959755000E-03 
7.62546862753000E-03 7.75793391196000E-03 7.89266350556000E-03 8.02969611354000E-03 
8.16907110270000E-03 8.31082851279000E-03 8.45500906796000E-03 8.60165418851000E-03 
8.75080600273000E-03 8.90250735906000E-03 9.05680183835000E-03 9.21373376644000E-03 
9.37334822682000E-03 9.53569107364000E-03 9.70080894486000E-03 9.86874927564000E-03 
1.00395603120000E-02 1.02132911246000E-02 1.03899916231000E-02 1.05697125699000E-02 
1.07525055955000E-02 1.09384232128000E-02 1.11275188322000E-02 1.13198467774000E-02 
1.15154623004000E-02 1.17144215977000E-02 1.19167818266000E-02 1.21226011212000E-02 
1.23319386093000E-02 1.25448544297000E-02 1.27614097488000E-02 1.29816667789000E-02 
1.32056887956000E-02 1.34335401560000E-02 1.36652863174000E-02 1.39009938559000E-02 
1.41407304860000E-02 1.43845650791000E-02 1.46325676843000E-02 1.48848095479000E-02 
1.51413631341000E-02 1.54023021458000E-02 1.56677015458000E-02 1.59376375781000E-02 
1.62121877902000E-02 1.64914310550000E-02 1.67754475937000E-02 1.70643189987000E-02 
1.73581282572000E-02 1.76569597750000E-02 1.79608994005000E-02 1.82700344497000E-02 
1.85844537312000E-02 1.89042475715000E-02 1.92295078411000E-02 1.95603279812000E-02 
1.98968030298000E-02 2.02390296498000E-02 2.05871061563000E-02 2.09411325448000E-02 
2.13012105204000E-02 2.16674435264000E-02 2.20399367746000E-02 2.24187972750000E-02 
2.28041338669000E-02 2.31960572500000E-02 2.35946800164000E-02 2.40001166827000E-02 
2.44124837230000E-02 2.48318996023000E-02 2.52584848107000E-02 2.56923618979000E-02 
2.61336555084000E-02 2.65824924173000E-02 2.70390015667000E-02 2.75033141030000E-02 
2.79755634140000E-02 2.84558851679000E-02 2.89444173519000E-02 2.94413003118000E-02 
2.99466767924000E-02 3.04606919786000E-02 3.09834935371000E-02 3.15152316586000E-02 
3.20560591012000E-02 3.26061312341000E-02 3.31656060824000E-02 3.37346443725000E-02 
3.43134095780000E-02 3.49020679669000E-02 3.55007886494000E-02 3.61097436265000E-02 
3.67291078390000E-02 3.73590592183000E-02 3.79997787373000E-02 3.86514504622000E-02 
3.93142616058000E-02 3.99884025809000E-02 4.06740670551000E-02 4.13714520066000E-02 
4.20807577806000E-02 4.28021881468000E-02 4.35359503583000E-02 4.42822552108000E-02 
4.50413171032000E-02 4.58133540992000E-02 4.65985879903000E-02 4.73972443588000E-02 
4.82095526433000E-02 4.90357462043000E-02 4.98760623912000E-02 5.07307426105000E-02 
5.16000323954000E-02 5.24841814759000E-02 5.33834438511000E-02 5.42980778615000E-02 
5.52283462638000E-02 5.61745163062000E-02 5.71368598050000E-02 5.81156532229000E-02 
5.91111777482000E-02 6.01237193759000E-02 6.11535689896000E-02 6.22010224452000E-02 
6.32663806557000E-02 6.43499496781000E-02 6.54520408006000E-02 6.65729706328000E-02 
6.77130611961000E-02 6.88726400164000E-02 7.00520402184000E-02 7.12516006208000E-02 
7.24716658341000E-02 7.37125863596000E-02 7.49747186896000E-02 7.62584254103000E-02 
7.75640753058000E-02 7.88920434642000E-02 8.02427113848000E-02 8.16164670886000E-02 
8.30137052289000E-02 8.44348272052000E-02 8.58802412783000E-02 8.73503626878000E-02 
8.88456137711000E-02 9.03664240848000E-02 9.19132305284000E-02 9.34864774693000E-02 
9.50866168711000E-02 9.67141084228000E-02 9.83694196712000E-02 1.00053026155000E-01 
1.01765411543000E-01 1.03507067768000E-01 1.05278495176000E-01 1.07080202664000E-01 
1.08912707826000E-01 1.10776537107000E-01 1.12672225948000E-01 1.14600318944000E-01 
1.16561369999000E-01 1.18555942485000E-01 1.20584609404000E-01 1.22647953552000E-01 
1.24746567690000E-01 1.26881054707000E-01 1.29052027801000E-01 1.31260110650000E-01 
1.33505937593000E-01 1.35790153814000E-01 1.38113415523000E-01 1.40476390149000E-01 
1.42879756529000E-01 1.45324205102000E-01 1.47810438112000E-01 1.50339169806000E-01 
1.52911126639000E-01 1.55527047484000E-01 1.58187683846000E-01 1.60893800073000E-01 
1.63646173580000E-01 1.66445595071000E-01 1.69292868765000E-01 1.72188812630000E-01 
1.75134258613000E-01 1.78130052885000E-01 1.81177056079000E-01 1.84276143540000E-01 
1.87428205576000E-01 1.90634147713000E-01 1.93894890957000E-01 1.97211372056000E-01 
2.00584543771000E-01 2.04015375149000E-01 2.07504851801000E-01 2.11053976186000E-01 
2.14663767900000E-01 2.18335263965000E-01 2.22069519131000E-01 2.25867606178000E-01 
2.29730616222000E-01 2.33659659032000E-01 2.37655863345000E-01 2.41720377193000E-01 
2.45854368234000E-01 2.50059024081000E-01 2.54335552653000E-01 2.58685182512000E-01 
2.63109163223000E-01 2.67608765710000E-01 2.72185282621000E-01 2.76840028703000E-01 
2.81574341172000E-01 2.86389580106000E-01 2.91287128829000E-01 2.96268394313000E-01 
3.01334807578000E-01 3.06487824107000E-01 3.11728924262000E-01 3.17059613709000E-01 
3.22481423854000E-01 3.27995912275000E-01 3.33604663181000E-01 3.39309287855000E-01 
3.45111425127000E-01 3.51012741837000E-01 3.57014933321000E-01 3.63119723892000E-01 
3.69328867338000E-01 3.75644147425000E-01 3.82067378412000E-01 3.88600405568000E-01 
3.95245105705000E-01 4.02003387718000E-01 4.08877193130000E-01 4.15868496653000E-01 
4.22979306752000E-01 4.30211666226000E-01 4.37567652791000E-01 4.45049379680000E-01 
4.52658996250000E-01 4.60398688594000E-01 4.68270680177000E-01 4.76277232470000E-01 
4.84420645601000E-01 4.92703259014000E-01 5.01127452144000E-01 5.09695645098000E-01 
5.18410299354000E-01 5.27273918461000E-01 5.36289048767000E-01 5.45458280144000E-01 
5.54784246734000E-01 5.64269627708000E-01 5.73917148032000E-01 5.83729579252000E-01 
5.93709740289000E-01 6.03860498250000E-01 6.14184769252000E-01 6.24685519258000E-01 
6.35365764931000E-01 6.46228574498000E-01 6.57277068634000E-01 6.68514421358000E-01 
6.79943860944000E-01 6.91568670848000E-01 7.03392190654000E-01 7.15417817030000E-01 
7.27649004706000E-01 7.40089267465000E-01 7.52742179154000E-01 7.65611374710000E-01 
7.78700551203000E-01 7.92013468902000E-01 8.05553952348000E-01 8.19325891462000E-01 
8.33333242655000E-01 8.47580029967000E-01 8.62070346226000E-01 8.76808354218000E-01 
8.91798287888000E-01 9.07044453554000E-01 9.22551231144000E-01 9.38323075456000E-01 
9.54364517435000E-01 9.70680165477000E-01 9.87274706752000E-01 1.00415290855000E+00 
1.02131961965000E+00 1.03877977172000E+00 1.05653838073000E+00 1.07460054837000E+00 
1.09297146355000E+00 1.11165640390000E+00 1.13066073722000E+00 1.14998992310000E+00 
1.16964951443000E+00 1.18964515904000E+00 1.20998260129000E+00 1.23066768373000E+00 
1.25170634879000E+00 1.27310464047000E+00 1.29486870607000E+00 1.31700479801000E+00 
1.33951927554000E+00 1.36241860665000E+00 1.38570936986000E+00 1.40939825616000E+00 
1.43349207091000E+00 1.45799773581000E+00 1.48292229084000E+00 1.50827289635000E+00 
1.53405683509000E+00 1.56028151428000E+00 1.58695446776000E+00 1.61408335815000E+00 
1.64167597906000E+00 1.66974025732000E+00 1.69828425524000E+00 1.72731617298000E+00 
1.75684435083000E+00 1.78687727167000E+00 1.81742356338000E+00 1.84849200132000E+00 
1.88009151084000E+00 1.91223116988000E+00 1.94492021153000E+00 1.97816802673000E+00 
2.01198416693000E+00 2.04637834685000E+00 2.08136044728000E+00 2.11694051789000E+00 
2.15312878015000E+00 2.18993563025000E+00 2.22737164209000E+00 2.26544757030000E+00 
2.30417435337000E+00 2.34356311674000E+00 2.38362517605000E+00 2.42437204036000E+00 
2.46581541544000E+00 2.50796720718000E+00 2.55083952498000E+00 2.59444468521000E+00 
2.63879521480000E+00 2.68390385480000E+00 2.72978356405000E+00 2.77644752289000E+00 
2.82390913699000E+00 2.87218204114000E+00 2.92128010322000E+00 2.97121742815000E+00 
3.02200836195000E+00 3.07366749588000E+00 3.12620967061000E+00 3.17964998049000E+00 
3.23400377788000E+00 3.28928667759000E+00 3.34551456131000E+00 3.40270358223000E+00 
3.46087016965000E+00 3.52003103370000E+00 3.58020317016000E+00 3.64140386532000E+00 
3.70365070094000E+00 3.76696155935000E+00 3.83135462852000E+00 3.89684840735000E+00 
3.96346171092000E+00 4.03121367595000E+00 4.10012376626000E+00 4.17021177840000E+00 
4.24149784728000E+00 4.31400245203000E+00 4.38774642181000E+00 4.46275094183000E+00 
4.53903755945000E+00 4.61662819032000E+00 4.69554512475000E+00 4.77581103403000E+00 
4.85744897701000E+00 4.94048240669000E+00 5.02493517697000E+00 5.11083154949000E+00 
5.19819620063000E+00 5.28705422854000E+00 5.37743116044000E+00 5.46935295985000E+00 
5.56284603414000E+00 5.65793724205000E+00 5.75465390145000E+00 5.85302379716000E+00 
5.95307518895000E+00 6.05483681965000E+00 6.15833792341000E+00 6.26360823410000E+00 
6.37067799382000E+00 6.47957796166000E+00 6.59033942247000E+00 6.70299419587000E+00 
6.81757464540000E+00 6.93411368780000E+00 7.05264480249000E+00 7.17320204117000E+00 
7.29582003758000E+00 7.42053401752000E+00 7.54737980889000E+00 7.67639385204000E+00 
7.80761321020000E+00 7.94107558016000E+00 8.07681930307000E+00 8.21488337548000E+00 
8.35530746052000E+00 8.49813189932000E+00 8.64339772257000E+00 8.79114666233000E+00 
8.94142116402000E+00 9.09426439859000E+00 9.24972027495000E+00 9.40783345255000E+00 
9.56864935427000E+00 9.73221417938000E+00 9.89857491691000E+00 1.00677793591000E+01 
1.02398761150000E+01 1.04149146248000E+01 1.05929451737000E+01 1.07740189063000E+01 
1.09581878417000E+01 1.11455048880000E+01 1.13360238578000E+01 1.15297994835000E+01 
1.17268874330000E+01 1.19273443260000E+01 1.21312277499000E+01 1.23385962763000E+01 
1.25495094783000E+01 1.27640279471000E+01 1.29822133097000E+01 1.32041282466000E+01 
1.34298365097000E+01 1.36594029405000E+01 1.38928934890000E+01 1.41303752327000E+01 
1.43719163953000E+01 1.46175863669000E+01 1.48674557239000E+01 1.51215962488000E+01 
1.53800809514000E+01 1.56429840891000E+01 1.59103811891000E+01 1.61823490693000E+01 
1.64589658609000E+01 1.67403110305000E+01 1.70264654031000E+01 1.73175111853000E+01 
1.76135319890000E+01 1.79146128552000E+01 1.82208402786000E+01 1.85323022325000E+01 
1.88490881938000E+01 1.91712891689000E+01 1.94989977201000E+01 1.98323079916000E+01 
2.01713157370000E+01 2.05161183467000E+01 2.08668148758000E+01 2.12235060727000E+01 
2.15862944077000E+01 2.19552841030000E+01 2.23305811622000E+01 2.27122934009000E+01 
2.31005304775000E+01 2.34954039251000E+01 2.38970271833000E+01 2.43055156305000E+01 
2.47209866176000E+01 2.51435595015000E+01 2.55733556790000E+01 2.60104986223000E+01 
2.64551139142000E+01 2.69073292840000E+01 2.73672746444000E+01 2.78350821289000E+01 
2.83108861294000E+01 2.87948233353000E+01 2.92870327723000E+01 2.97876558427000E+01 
3.02968363658000E+01 3.08147206193000E+01 3.13414573814000E+01 3.18771979733000E+01 
3.24220963030000E+01 3.29763089091000E+01 3.35399950062000E+01 3.41133165305000E+01 
3.46964381862000E+01 3.52895274927000E+01 3.58927548332000E+01 3.65062935032000E+01 
3.71303197605000E+01 3.77650128757000E+01 3.84105551840000E+01 3.90671321371000E+01 
3.97349323569000E+01 4.04141476895000E+01 4.11049732603000E+01 4.18076075300000E+01 
4.25222523520000E+01 4.32491130299000E+01 4.39883983766000E+01 4.47403207746000E+01 
4.55050962366000E+01 4.62829444678000E+01 4.70740889289000E+01 4.78787569004000E+01 
4.86971795480000E+01 4.95295919884000E+01 5.03762333578000E+01 5.12373468799000E+01 
5.21131799358000E+01 5.30039841355000E+01 5.39100153897000E+01 5.48315339838000E+01 
5.57688046522000E+01 5.67220966545000E+01 5.76916838533000E+01 5.86778447920000E+01 
5.96808627756000E+01 6.07010259519000E+01 6.17386273939000E+01 6.27939651845000E+01 
6.38673425018000E+01 6.49590677062000E+01 6.60694544295000E+01 6.71988216640000E+01 
6.83474938553000E+01 6.95158009947000E+01 7.07040787140000E+01 7.19126683826000E+01 
7.31419172048000E+01 7.43921783201000E+01 7.56638109043000E+01 7.69571802728000E+01 
7.82726579857000E+01 7.96106219541000E+01 8.09714565493000E+01 8.23555527127000E+01 
8.37633080683000E+01 8.51951270371000E+01 8.66514209528000E+01 8.81326081806000E+01 
8.96391142370000E+01 9.11713719118000E+01 9.27298213932000E+01 9.43149103935000E+01 
9.59270942780000E+01 9.75668361961000E+01 9.92346072138000E+01 1.00930886449000E+02 
1.02656161211000E+02 1.04410927137000E+02 1.06195688338000E+02 1.08010957541000E+02 
1.09857256237000E+02 1.11735114832000E+02 1.13645072800000E+02 1.15587678833000E+02 
1.17563491006000E+02 1.19573076930000E+02 1.21617013921000E+02 1.23695889162000E+02 
1.25810299874000E+02 1.27960853486000E+02 1.30148167811000E+02 1.32372871222000E+02 
1.34635602833000E+02 1.36937012683000E+02 1.39277761922000E+02 1.41658523002000E+02 
1.44079979871000E+02 1.46542828166000E+02 1.49047775414000E+02 1.51595541241000E+02 
1.54186857568000E+02 1.56822468831000E+02 1.59503132191000E+02 1.62229617750000E+02 
1.65002708774000E+02 1.67823201919000E+02 1.70691907458000E+02 1.73609649514000E+02 
1.76577266299000E+02 1.79595610352000E+02 1.82665548783000E+02 1.85787963527000E+02 
1.88963751594000E+02 1.92193825326000E+02 1.95479112660000E+02 1.98820557396000E+02 
2.02219119467000E+02 
</PP_R>
    <PP_RAB>
2.10063743785000E-06 2.13654490317000E-06 2.17306615650000E-06 2.21021168969000E-06 
2.24799217392000E-06 2.28641846281000E-06 2.32550159547000E-06 2.36525279975000E-06 
2.40568349538000E-06 2.44680529733000E-06 2.48863001909000E-06 2.53116967610000E-06 
2.57443648918000E-06 2.61844288804000E-06 2.66320151488000E-06 2.70872522798000E-06 
2.75502710541000E-06 2.80212044883000E-06 2.85001878722000E-06 2.89873588087000E-06 
2.94828572524000E-06 2.99868255504000E-06 3.04994084832000E-06 3.10207533058000E-06 
3.15510097906000E-06 3.20903302699000E-06 3.26388696802000E-06 3.31967856061000E-06 
3.37642383262000E-06 3.43413908585000E-06 3.49284090080000E-06 3.55254614134000E-06 
3.61327195964000E-06 3.67503580106000E-06 3.73785540915000E-06 3.80174883077000E-06 
3.86673442126000E-06 3.93283084972000E-06 4.00005710439000E-06 4.06843249805000E-06 
4.13797667365000E-06 4.20870960987000E-06 4.28065162692000E-06 4.35382339234000E-06 
4.42824592698000E-06 4.50394061098000E-06 4.58092918996000E-06 4.65923378126000E-06 
4.73887688026000E-06 4.81988136689000E-06 4.90227051216000E-06 4.98606798489000E-06 
5.07129785847000E-06 5.15798461779000E-06 5.24615316628000E-06 5.33582883305000E-06 
5.42703738020000E-06 5.51980501017000E-06 5.61415837330000E-06 5.71012457550000E-06 
5.80773118599000E-06 5.90700624526000E-06 6.00797827313000E-06 6.11067627689000E-06 
6.21512975970000E-06 6.32136872902000E-06 6.42942370526000E-06 6.53932573051000E-06 
6.65110637750000E-06 6.76479775865000E-06 6.88043253529000E-06 6.99804392706000E-06 
7.11766572142000E-06 7.23933228342000E-06 7.36307856550000E-06 7.48894011756000E-06 
7.61695309720000E-06 7.74715428008000E-06 7.87958107046000E-06 8.01427151201000E-06 
8.15126429868000E-06 8.29059878585000E-06 8.43231500163000E-06 8.57645365833000E-06 
8.72305616420000E-06 8.87216463531000E-06 9.02382190764000E-06 9.17807154938000E-06 
9.33495787348000E-06 9.49452595033000E-06 9.65682162076000E-06 9.82189150918000E-06 
9.98978303696000E-06 1.01605444361000E-05 1.03342247630000E-05 1.05108739128000E-05 
1.06905426332000E-05 1.08732825397000E-05 1.10591461298000E-05 1.12481867986000E-05 
1.14404588538000E-05 1.16360175314000E-05 1.18349190117000E-05 1.20372204353000E-05 
1.22429799193000E-05 1.24522565745000E-05 1.26651105221000E-05 1.28816029109000E-05 
1.31017959349000E-05 1.33257528514000E-05 1.35535379988000E-05 1.37852168154000E-05 
1.40208558580000E-05 1.42605228212000E-05 1.45042865567000E-05 1.47522170930000E-05 
1.50043856558000E-05 1.52608646882000E-05 1.55217278718000E-05 1.57870501474000E-05 
1.60569077371000E-05 1.63313781656000E-05 1.66105402831000E-05 1.68944742873000E-05 
1.71832617471000E-05 1.74769856255000E-05 1.77757303036000E-05 1.80795816051000E-05 
1.83886268205000E-05 1.87029547326000E-05 1.90226556417000E-05 1.93478213916000E-05 
1.96785453962000E-05 2.00149226661000E-05 2.03570498360000E-05 2.07050251924000E-05 
2.10589487018000E-05 2.14189220397000E-05 2.17850486194000E-05 2.21574336221000E-05 
2.25361840266000E-05 2.29214086408000E-05 2.33132181320000E-05 2.37117250598000E-05 
2.41170439073000E-05 2.45292911148000E-05 2.49485851130000E-05 2.53750463569000E-05 
2.58087973606000E-05 2.62499627324000E-05 2.66986692105000E-05 2.71550456996000E-05 
2.76192233079000E-05 2.80913353846000E-05 2.85715175583000E-05 2.90599077762000E-05 
2.95566463432000E-05 3.00618759628000E-05 3.05757417776000E-05 3.10983914114000E-05 
3.16299750113000E-05 3.21706452909000E-05 3.27205575743000E-05 3.32798698408000E-05 
3.38487427699000E-05 3.44273397878000E-05 3.50158271142000E-05 3.56143738101000E-05 
3.62231518265000E-05 3.68423360535000E-05 3.74721043706000E-05 3.81126376983000E-05 
3.87641200492000E-05 3.94267385817000E-05 4.01006836533000E-05 4.07861488753000E-05 
4.14833311686000E-05 4.21924308202000E-05 4.29136515408000E-05 4.36472005230000E-05 
4.43932885013000E-05 4.51521298124000E-05 4.59239424566000E-05 4.67089481608000E-05 
4.75073724420000E-05 4.83194446719000E-05 4.91453981433000E-05 4.99854701366000E-05 
5.08399019882000E-05 5.17089391598000E-05 5.25928313090000E-05 5.34918323610000E-05 
5.44062005813000E-05 5.53361986502000E-05 5.62820937382000E-05 5.72441575826000E-05 
5.82226665657000E-05 5.92179017943000E-05 6.02301491802000E-05 6.12596995224000E-05 
6.23068485909000E-05 6.33718972113000E-05 6.44551513514000E-05 6.55569222093000E-05 
6.66775263023000E-05 6.78172855584000E-05 6.89765274083000E-05 7.01555848797000E-05 
7.13547966932000E-05 7.25745073589000E-05 7.38150672763000E-05 7.50768328340000E-05 
7.63601665131000E-05 7.76654369904000E-05 7.89930192448000E-05 8.03432946650000E-05 
8.17166511591000E-05 8.31134832658000E-05 8.45341922680000E-05 8.59791863077000E-05 
8.74488805039000E-05 8.89436970713000E-05 9.04640654417000E-05 9.20104223875000E-05 
9.35832121473000E-05 9.51828865529000E-05 9.68099051600000E-05 9.84647353795000E-05 
1.00147852612000E-04 1.01859740385000E-04 1.03600890490000E-04 1.05371803126000E-04 
1.07172987042000E-04 1.09004959683000E-04 1.10868247340000E-04 1.12763385300000E-04 
1.14690917997000E-04 1.16651399176000E-04 1.18645392045000E-04 1.20673469439000E-04 
1.22736213985000E-04 1.24834218271000E-04 1.26968085012000E-04 1.29138427227000E-04 
1.31345868413000E-04 1.33591042725000E-04 1.35874595159000E-04 1.38197181735000E-04 
1.40559469687000E-04 1.42962137655000E-04 1.45405875878000E-04 1.47891386396000E-04 
1.50419383247000E-04 1.52990592676000E-04 1.55605753342000E-04 1.58265616530000E-04 
1.60970946367000E-04 1.63722520042000E-04 1.66521128029000E-04 1.69367574313000E-04 
1.72262676624000E-04 1.75207266669000E-04 1.78202190371000E-04 1.81248308114000E-04 
1.84346494989000E-04 1.87497641044000E-04 1.90702651544000E-04 1.93962447224000E-04 
1.97277964563000E-04 2.00650156044000E-04 2.04079990431000E-04 2.07568453051000E-04 
2.11116546070000E-04 2.14725288788000E-04 2.18395717926000E-04 2.22128887928000E-04 
2.25925871261000E-04 2.29787758725000E-04 2.33715659766000E-04 2.37710702793000E-04 
2.41774035505000E-04 2.45906825219000E-04 2.50110259205000E-04 2.54385545029000E-04 
2.58733910897000E-04 2.63156606011000E-04 2.67654900926000E-04 2.72230087915000E-04 
2.76883481340000E-04 2.81616418031000E-04 2.86430257669000E-04 2.91326383178000E-04 
2.96306201120000E-04 3.01371142099000E-04 3.06522661175000E-04 3.11762238281000E-04 
3.17091378645000E-04 3.22511613226000E-04 3.28024499152000E-04 3.33631620170000E-04 
3.39334587096000E-04 3.45135038282000E-04 3.51034640086000E-04 3.57035087350000E-04 
3.63138103885000E-04 3.69345442971000E-04 3.75658887855000E-04 3.82080252268000E-04 
3.88611380944000E-04 3.95254150150000E-04 4.02010468225000E-04 4.08882276128000E-04 
4.15871547997000E-04 4.22980291714000E-04 4.30210549483000E-04 4.37564398419000E-04 
4.45043951139000E-04 4.52651356375000E-04 4.60388799586000E-04 4.68258503590000E-04 
4.76262729201000E-04 4.84403775878000E-04 4.92683982386000E-04 5.01105727468000E-04 
5.09671430529000E-04 5.18383552330000E-04 5.27244595694000E-04 5.36257106227000E-04 
5.45423673051000E-04 5.54746929541000E-04 5.64229554089000E-04 5.73874270870000E-04 
5.83683850623000E-04 5.93661111453000E-04 6.03808919632000E-04 6.14130190429000E-04 
6.24627888946000E-04 6.35305030968000E-04 6.46164683832000E-04 6.57209967306000E-04 
6.68444054486000E-04 6.79870172708000E-04 6.91491604474000E-04 7.03311688398000E-04 
7.15333820160000E-04 7.27561453486000E-04 7.39998101138000E-04 7.52647335926000E-04 
7.65512791729000E-04 7.78598164543000E-04 7.91907213544000E-04 8.05443762163000E-04 
8.19211699189000E-04 8.33214979884000E-04 8.47457627119000E-04 8.61943732531000E-04 
8.76677457698000E-04 8.91663035335000E-04 9.06904770507000E-04 9.22407041870000E-04 
9.38174302927000E-04 9.54211083306000E-04 9.70521990066000E-04 9.87111709012000E-04 
1.00398500605000E-03 1.02114672855000E-03 1.03860180675000E-03 1.05635525515000E-03 
1.07441217398000E-03 1.09277775063000E-03 1.11145726118000E-03 1.13045607189000E-03 
1.14977964076000E-03 1.16943351907000E-03 1.18942335300000E-03 1.20975488525000E-03 
1.23043395666000E-03 1.25146650794000E-03 1.27285858133000E-03 1.29461632236000E-03 
1.31674598160000E-03 1.33925391649000E-03 1.36214659311000E-03 1.38543058809000E-03 
1.40911259047000E-03 1.43319940363000E-03 1.45769794724000E-03 1.48261525926000E-03 
1.50795849796000E-03 1.53373494396000E-03 1.55995200233000E-03 1.58661720471000E-03 
1.61373821152000E-03 1.64132281410000E-03 1.66937893695000E-03 1.69791464007000E-03 
1.72693812121000E-03 1.75645771825000E-03 1.78648191161000E-03 1.81701932665000E-03 
1.84807873618000E-03 1.87966906297000E-03 1.91179938231000E-03 1.94447892462000E-03 
1.97771707810000E-03 2.01152339142000E-03 2.04590757649000E-03 2.08087951121000E-03 
2.11644924235000E-03 2.15262698840000E-03 2.18942314253000E-03 2.22684827557000E-03 
2.26491313902000E-03 2.30362866819000E-03 2.34300598529000E-03 2.38305640268000E-03 
2.42379142606000E-03 2.46522275781000E-03 2.50736230036000E-03 2.55022215957000E-03 
2.59381464827000E-03 2.63815228972000E-03 2.68324782127000E-03 2.72911419799000E-03 
2.77576459642000E-03 2.82321241830000E-03 2.87147129448000E-03 2.92055508879000E-03 
2.97047790207000E-03 3.02125407617000E-03 3.07289819810000E-03 3.12542510421000E-03 
3.17884988448000E-03 3.23318788681000E-03 3.28845472146000E-03 3.34466626551000E-03 
3.40183866746000E-03 3.45998835182000E-03 3.51913202389000E-03 3.57928667449000E-03 
3.64046958489000E-03 3.70269833176000E-03 3.76599079220000E-03 3.83036514893000E-03 
3.89583989544000E-03 3.96243384136000E-03 4.03016611786000E-03 4.09905618309000E-03 
4.16912382784000E-03 4.24038918119000E-03 4.31287271630000E-03 4.38659525628000E-03 
4.46157798019000E-03 4.53784242912000E-03 4.61541051238000E-03 4.69430451376000E-03 
4.77454709798000E-03 4.85616131720000E-03 4.93917061759000E-03 5.02359884613000E-03 
5.10947025740000E-03 5.19680952060000E-03 5.28564172662000E-03 5.37599239522000E-03 
5.46788748241000E-03 5.56135338787000E-03 5.65641696253000E-03 5.75310551633000E-03 
5.85144682602000E-03 5.95146914316000E-03 6.05320120221000E-03 6.15667222883000E-03 
6.26191194825000E-03 6.36895059379000E-03 6.47781891560000E-03 6.58854818943000E-03 
6.70117022566000E-03 6.81571737842000E-03 6.93222255490000E-03 7.05071922477000E-03 
7.17124142984000E-03 7.29382379380000E-03 7.41850153220000E-03 7.54531046253000E-03 
7.67428701455000E-03 7.80546824072000E-03 7.93889182688000E-03 8.07459610304000E-03 
8.21262005440000E-03 8.35300333259000E-03 8.49578626699000E-03 8.64100987639000E-03 
8.78871588072000E-03 8.93894671305000E-03 9.09174553179000E-03 9.24715623310000E-03 
9.40522346345000E-03 9.56599263250000E-03 9.72950992612000E-03 9.89582231967000E-03 
1.00649775915000E-02 1.02370243366000E-02 1.04120119807000E-02 1.05899907944000E-02 
1.07710119075000E-02 1.09551273238000E-02 1.11423899363000E-02 1.13328535418000E-02 
1.15265728568000E-02 1.17236035332000E-02 1.19240021739000E-02 1.21278263498000E-02 
1.23351346155000E-02 1.25459865267000E-02 1.27604426570000E-02 1.29785646156000E-02 