<UPF version="2.0.1">
  <PP_INFO>
Generated using Vanderbilt code, version   7  3  6
Author: kfg        Generation date:   22    9   15
Automatically converted from original format
1        The Pseudo was generated with a Scalar-Relativistic Calculation
1.60000000000E+00    Local Potential cutoff radius
nl pn  l   occ               Rcut            Rcut US             E pseu
3S  3  0  2.00      0.00000000000      1.55000000000     -6.55553300800
3P  3  1  6.00      0.00000000000      1.55000000000     -4.44627847900
4S  4  0  1.60      0.00000000000      1.55000000000     -0.91154905100
3D  3  2  3.40      0.00000000000      1.70000000000     -1.23032724500
</PP_INFO>
  <PP_HEADER element="Cr" pseudo_type="US" relativistic="scalar" is_ultrasoft="T" is_paw="F" is_coulomb="F" has_so="F" has_wfc="F" has_gipaw="F" core_correction="T" functional="PBESOL" z_valence="14.0" total_psenergy="-173.900626811" wfc_cutoff="0.0" rho_cutoff="0.0" l_max="2" mesh_size="857" number_of_wfc="4" number_of_proj="6"/>
  <PP_MESH>
    <PP_R>
0.00000000000000E+00 1.76545037833000E-06 3.56107866699000E-06 5.38740071525000E-06 
7.24494119008000E-06 9.13423372691000E-06 1.10558210829000E-05 1.30102552930000E-05 
1.49980978283000E-05 1.70199197575000E-05 1.90763019108000E-05 2.11678350472000E-05 
2.32951200235000E-05 2.54587679677000E-05 2.76594004538000E-05 2.98976496811000E-05 
3.21741586551000E-05 3.44895813730000E-05 3.68445830108000E-05 3.92398401149000E-05 
4.16760407963000E-05 4.41538849284000E-05 4.66740843478000E-05 4.92373630591000E-05 
5.18444574426000E-05 5.44961164661000E-05 5.71931018999000E-05 5.99361885357000E-05 
6.27261644093000E-05 6.55638310267000E-05 6.84500035947000E-05 7.13855112547000E-05 
7.43711973214000E-05 7.74079195244000E-05 8.04965502555000E-05 8.36379768184000E-05 
8.68331016841000E-05 9.00828427503000E-05 9.33881336046000E-05 9.67499237932000E-05 
1.00169179093000E-04 1.03646881791000E-04 1.07184030962000E-04 1.10781642762000E-04 
1.14440750715000E-04 1.18162406012000E-04 1.21947677812000E-04 1.25797653551000E-04 
1.29713439252000E-04 1.33696159844000E-04 1.37746959487000E-04 1.41867001896000E-04 
1.46057470680000E-04 1.50319569680000E-04 1.54654523314000E-04 1.59063576931000E-04 
1.63547997165000E-04 1.68109072305000E-04 1.72748112659000E-04 1.77466450934000E-04 
1.82265442617000E-04 1.87146466364000E-04 1.92110924401000E-04 1.97160242919000E-04 
2.02295872491000E-04 2.07519288483000E-04 2.12831991481000E-04 2.18235507722000E-04 
2.23731389533000E-04 2.29321215773000E-04 2.35006592291000E-04 2.40789152386000E-04 
2.46670557276000E-04 2.52652496574000E-04 2.58736688776000E-04 2.64924881752000E-04 
2.71218853251000E-04 2.77620411409000E-04 2.84131395270000E-04 2.90753675313000E-04 
2.97489153991000E-04 3.04339766277000E-04 3.11307480219000E-04 3.18394297507000E-04 
3.25602254045000E-04 3.32933420542000E-04 3.40389903098000E-04 3.47973843817000E-04 
3.55687421418000E-04 3.63532851864000E-04 3.71512388993000E-04 3.79628325174000E-04 
3.87882991956000E-04 3.96278760747000E-04 4.04818043489000E-04 4.13503293351000E-04 
4.22337005438000E-04 4.31321717505000E-04 4.40460010686000E-04 4.49754510235000E-04 
4.59207886282000E-04 4.68822854600000E-04 4.78602177382000E-04 4.88548664039000E-04 
4.98665172004000E-04 5.08954607554000E-04 5.19419926644000E-04 5.30064135759000E-04 
5.40890292773000E-04 5.51901507833000E-04 5.63100944246000E-04 5.74491819395000E-04 
5.86077405658000E-04 5.97861031348000E-04 6.09846081674000E-04 6.22035999710000E-04 
6.34434287381000E-04 6.47044506477000E-04 6.59870279669000E-04 6.72915291555000E-04 
6.86183289713000E-04 6.99678085782000E-04 7.13403556556000E-04 7.27363645098000E-04 
7.41562361871000E-04 7.56003785891000E-04 7.70692065900000E-04 7.85631421557000E-04 
8.00826144649000E-04 8.16280600326000E-04 8.31999228355000E-04 8.47986544392000E-04 
8.64247141285000E-04 8.80785690389000E-04 8.97606942908000E-04 9.14715731263000E-04 
9.32116970478000E-04 9.49815659591000E-04 9.67816883095000E-04 9.86125812391000E-04 
1.00474770728000E-03 1.02368791748000E-03 1.04295188413000E-03 1.06254514141000E-03 
1.08247331808000E-03 1.10274213912000E-03 1.12335742736000E-03 1.14432510519000E-03 
1.16565119620000E-03 1.18734182698000E-03 1.20940322882000E-03 1.23184173954000E-03 
1.25466380528000E-03 1.27787598238000E-03 1.30148493926000E-03 1.32549745830000E-03 
1.34992043785000E-03 1.37476089414000E-03 1.40002596337000E-03 1.42572290370000E-03 
1.45185909736000E-03 1.47844205277000E-03 1.50547940671000E-03 1.53297892648000E-03 
1.56094851216000E-03 1.58939619887000E-03 1.61833015909000E-03 1.64775870497000E-03 
1.67769029078000E-03 1.70813351527000E-03 1.73909712419000E-03 1.77059001280000E-03 
1.80262122839000E-03 1.83519997291000E-03 1.86833560559000E-03 1.90203764567000E-03 
1.93631577509000E-03 1.97117984130000E-03 2.00663986006000E-03 2.04270601835000E-03 
2.07938867729000E-03 2.11669837508000E-03 2.15464583009000E-03 2.19324194388000E-03 
2.23249780437000E-03 2.27242468901000E-03 2.31303406802000E-03 2.35433760769000E-03 
2.39634717372000E-03 2.43907483466000E-03 2.48253286533000E-03 2.52673375039000E-03 
2.57169018789000E-03 2.61741509294000E-03 2.66392160143000E-03 2.71122307378000E-03 
2.75933309879000E-03 2.80826549753000E-03 2.85803432733000E-03 2.90865388582000E-03 
2.96013871502000E-03 3.01250360553000E-03 3.06576360075000E-03 3.11993400126000E-03 
3.17503036917000E-03 3.23106853259000E-03 3.28806459021000E-03 3.34603491589000E-03 
3.40499616339000E-03 3.46496527112000E-03 3.52595946706000E-03 3.58799627365000E-03 
3.65109351287000E-03 3.71526931133000E-03 3.78054210551000E-03 3.84693064700000E-03 
3.91445400796000E-03 3.98313158654000E-03 4.05298311248000E-03 4.12402865277000E-03 
4.19628861742000E-03 4.26978376531000E-03 4.34453521019000E-03 4.42056442669000E-03 
4.49789325655000E-03 4.57654391482000E-03 4.65653899634000E-03 4.73790148213000E-03 
4.82065474607000E-03 4.90482256156000E-03 4.99042910839000E-03 5.07749897967000E-03 
5.16605718887000E-03 5.25612917708000E-03 5.34774082021000E-03 5.44091843653000E-03 
5.53568879416000E-03 5.63207911880000E-03 5.73011710150000E-03 5.82983090670000E-03 
5.93124918024000E-03 6.03440105762000E-03 6.13931617239000E-03 6.24602466462000E-03 
6.35455718961000E-03 6.46494492664000E-03 6.57721958797000E-03 6.69141342795000E-03 
6.80755925225000E-03 6.92569042732000E-03 7.04584088997000E-03 7.16804515709000E-03 
7.29233833561000E-03 7.41875613255000E-03 7.54733486529000E-03 7.67811147203000E-03 
7.81112352235000E-03 7.94640922803000E-03 8.08400745405000E-03 8.22395772970000E-03 
8.36630026000000E-03 8.51107593720000E-03 8.65832635255000E-03 8.80809380825000E-03 
8.96042132959000E-03 9.11535267731000E-03 9.27293236020000E-03 9.43320564784000E-03 
9.59621858366000E-03 9.76201799811000E-03 9.93065152216000E-03 1.01021676010000E-02 
1.02766155078000E-02 1.04540453581000E-02 1.06345081240000E-02 1.08180556491000E-02 
1.10047406630000E-02 1.11946167966000E-02 1.13877385978000E-02 1.15841615466000E-02 
1.17839420716000E-02 1.19871375659000E-02 1.21938064035000E-02 1.24040079566000E-02 
1.26178026117000E-02 1.28352517882000E-02 1.30564179548000E-02 1.32813646484000E-02 
1.35101564918000E-02 1.37428592125000E-02 1.39795396614000E-02 1.42202658322000E-02 
1.44651068810000E-02 1.47141331458000E-02 1.49674161671000E-02 1.52250287081000E-02 
1.54870447760000E-02 1.57535396429000E-02 1.60245898676000E-02 1.63002733176000E-02 
1.65806691915000E-02 1.68658580415000E-02 1.71559217969000E-02 1.74509437873000E-02 
1.77510087670000E-02 1.80562029387000E-02 1.83666139788000E-02 1.86823310625000E-02 
1.90034448891000E-02 1.93300477083000E-02 1.96622333470000E-02 2.00000972356000E-02 
2.03437364358000E-02 2.06932496686000E-02 2.10487373422000E-02 2.14103015816000E-02 
2.17780462570000E-02 2.21520770144000E-02 2.25325013056000E-02 2.29194284191000E-02 
2.33129695117000E-02 2.37132376399000E-02 2.41203477933000E-02 2.45344169265000E-02 
2.49555639937000E-02 2.53839099822000E-02 2.58195779476000E-02 2.62626930488000E-02 
2.67133825843000E-02 2.71717760284000E-02 2.76380050687000E-02 2.81122036437000E-02 
2.85945079816000E-02 2.90850566391000E-02 2.95839905412000E-02 3.00914530221000E-02 
3.06075898658000E-02 3.11325493486000E-02 3.16664822811000E-02 3.22095420519000E-02 
3.27618846715000E-02 3.33236688174000E-02 3.38950558793000E-02 3.44762100055000E-02 
3.50672981505000E-02 3.56684901223000E-02 3.62799586319000E-02 3.69018793423000E-02 
3.75344309193000E-02 3.81777950827000E-02 3.88321566586000E-02 3.94977036323000E-02 
4.01746272028000E-02 4.08631218369000E-02 4.15633853260000E-02 4.22756188421000E-02 
4.30000269961000E-02 4.37368178966000E-02 4.44862032092000E-02 4.52483982179000E-02 
4.60236218865000E-02 4.68120969219000E-02 4.76140498375000E-02 4.84297110191000E-02 
4.92593147902000E-02 5.01030994799000E-02 5.09613074913000E-02 5.18341853710000E-02 
5.27219838798000E-02 5.36249580651000E-02 5.45433673339000E-02 5.54774755273000E-02 
5.64275509967000E-02 5.73938666804000E-02 5.83767001820000E-02 5.93763338506000E-02 
6.03930548618000E-02 6.14271552997000E-02 6.24789322413000E-02 6.35486878419000E-02 
6.46367294215000E-02 6.57433695535000E-02 6.68689261540000E-02 6.80137225738000E-02 
6.91780876907000E-02 7.03623560043000E-02 7.15668677319000E-02 7.27919689065000E-02 
7.40380114759000E-02 7.53053534040000E-02 7.65943587736000E-02 7.79053978911000E-02 
7.92388473926000E-02 8.05950903524000E-02 8.19745163927000E-02 8.33775217961000E-02 
8.48045096188000E-02 8.62558898067000E-02 8.77320793135000E-02 8.92335022196000E-02 
9.07605898550000E-02 9.23137809222000E-02 9.38935216231000E-02 9.55002657865000E-02 
9.71344749991000E-02 9.87966187374000E-02 1.00487174503000E-01 1.02206627960000E-01 
1.03955473075000E-01 1.05734212256000E-01 1.07543356501000E-01 1.09383425541000E-01 
1.11254947994000E-01 1.13158461512000E-01 1.15094512936000E-01 1.17063658458000E-01 
1.19066463774000E-01 1.21103504252000E-01 1.23175365094000E-01 1.25282641505000E-01 
1.27425938866000E-01 1.29605872904000E-01 1.31823069872000E-01 1.34078166727000E-01 
1.36371811317000E-01 1.38704662559000E-01 1.41077390638000E-01 1.43490677192000E-01 
1.45945215511000E-01 1.48441710738000E-01 1.50980880066000E-01 1.53563452950000E-01 
1.56190171313000E-01 1.58861789761000E-01 1.61579075798000E-01 1.64342810047000E-01 
1.67153786476000E-01 1.70012812624000E-01 1.72920709834000E-01 1.75878313489000E-01 
1.78886473250000E-01 1.81946053304000E-01 1.85057932609000E-01 1.88223005148000E-01 
1.91442180185000E-01 1.94716382526000E-01 1.98046552787000E-01 2.01433647661000E-01 
2.04878640195000E-01 2.08382520068000E-01 2.11946293877000E-01 2.15570985426000E-01 
2.19257636019000E-01 2.23007304758000E-01 2.26821068851000E-01 2.30700023919000E-01 
2.34645284310000E-01 2.38657983422000E-01 2.42739274024000E-01 2.46890328594000E-01 
2.51112339648000E-01 2.55406520089000E-01 2.59774103552000E-01 2.64216344758000E-01 
2.68734519878000E-01 2.73329926896000E-01 2.78003885984000E-01 2.82757739879000E-01 
2.87592854272000E-01 2.92510618198000E-01 2.97512444435000E-01 3.02599769910000E-01 
3.07774056115000E-01 3.13036789521000E-01 3.18389482010000E-01 3.23833671306000E-01 
3.29370921421000E-01 3.35002823099000E-01 3.40730994275000E-01 3.46557080544000E-01 
3.52482755626000E-01 3.58509721855000E-01 3.64639710659000E-01 3.70874483067000E-01 
3.77215830208000E-01 3.83665573828000E-01 3.90225566814000E-01 3.96897693725000E-01 
4.03683871334000E-01 4.10586049178000E-01 4.17606210120000E-01 4.24746370915000E-01 
4.32008582795000E-01 4.39394932051000E-01 4.46907540639000E-01 4.54548566787000E-01 
4.62320205612000E-01 4.70224689757000E-01 4.78264290027000E-01 4.86441316043000E-01 
4.94758116907000E-01 5.03217081875000E-01 5.11820641043000E-01 5.20571266049000E-01 
5.29471470776000E-01 5.38523812081000E-01 5.47730890528000E-01 5.57095351131000E-01 
5.66619884120000E-01 5.76307225707000E-01 5.86160158878000E-01 5.96181514192000E-01 
6.06374170588000E-01 6.16741056221000E-01 6.27285149295000E-01 6.38009478925000E-01 
6.48917126003000E-01 6.60011224085000E-01 6.71294960290000E-01 6.82771576218000E-01 
6.94444368879000E-01 7.06316691639000E-01 7.18391955188000E-01 7.30673628515000E-01 
7.43165239907000E-01 7.55870377962000E-01 7.68792692620000E-01 7.81935896214000E-01 
7.95303764529000E-01 8.08900137898000E-01 8.22728922293000E-01 8.36794090459000E-01 
8.51099683044000E-01 8.65649809770000E-01 8.80448650606000E-01 8.95500456972000E-01 
9.10809552962000E-01 9.26380336582000E-01 9.42217281017000E-01 9.58324935916000E-01 
9.74707928694000E-01 9.91370965870000E-01 1.00831883441000E+00 1.02555640311000E+00 
1.04308862399000E+00 1.06092053372000E+00 1.07905725506000E+00 1.09750399834000E+00 
1.11626606295000E+00 1.13534883887000E+00 1.15475780821000E+00 1.17449854680000E+00 
1.19457672576000E+00 1.21499811317000E+00 1.23576857570000E+00 1.25689408030000E+00 
1.27838069591000E+00 1.30023459523000E+00 1.32246205646000E+00 1.34506946512000E+00 
1.36806331588000E+00 1.39145021443000E+00 1.41523687937000E+00 1.43943014415000E+00 
1.46403695902000E+00 1.48906439306000E+00 1.51451963615000E+00 1.54041000110000E+00 
1.56674292570000E+00 1.59352597490000E+00 1.62076684294000E+00 1.64847335561000E+00 
1.67665347244000E+00 1.70531528904000E+00 1.73446703940000E+00 1.76411709824000E+00 
1.79427398346000E+00 1.82494635854000E+00 1.85614303507000E+00 1.88787297525000E+00 
1.92014529447000E+00 1.95296926395000E+00 1.98635431338000E+00 2.02031003363000E+00 
2.05484617953000E+00 2.08997267265000E+00 2.12569960415000E+00 2.16203723768000E+00 
2.19899601234000E+00 2.23658654567000E+00 2.27481963671000E+00 2.31370626908000E+00 
2.35325761416000E+00 2.39348503428000E+00 2.43440008602000E+00 2.47601452345000E+00 
2.51834030162000E+00 2.56138957990000E+00 2.60517472551000E+00 2.64970831708000E+00 
2.69500314824000E+00 2.74107223132000E+00 2.78792880109000E+00 2.83558631852000E+00 
2.88405847471000E+00 2.93335919475000E+00 2.98350264180000E+00 3.03450322110000E+00 
3.08637558412000E+00 3.13913463279000E+00 3.19279552377000E+00 3.24737367279000E+00 
3.30288475910000E+00 3.35934472995000E+00 3.41676980522000E+00 3.47517648200000E+00 
3.53458153940000E+00 3.59500204336000E+00 3.65645535151000E+00 3.71895911819000E+00 
3.78253129954000E+00 3.84719015860000E+00 3.91295427062000E+00 3.97984252836000E+00 
4.04787414751000E+00 4.11706867224000E+00 4.18744598081000E+00 4.25902629125000E+00 
4.33183016719000E+00 4.40587852379000E+00 4.48119263370000E+00 4.55779413321000E+00 
4.63570502845000E+00 4.71494770171000E+00 4.79554491787000E+00 4.87751983096000E+00 
4.96089599079000E+00 5.04569734971000E+00 5.13194826951000E+00 5.21967352841000E+00 
5.30889832818000E+00 5.39964830138000E+00 5.49194951872000E+00 5.58582849656000E+00 
5.68131220450000E+00 5.77842807317000E+00 5.87720400208000E+00 5.97766836764000E+00 
6.07985003132000E+00 6.18377834793000E+00 6.28948317408000E+00 6.39699487670000E+00 
6.50634434183000E+00 6.61756298347000E+00 6.73068275256000E+00 6.84573614623000E+00 
6.96275621710000E+00 7.08177658276000E+00 7.20283143547000E+00 7.32595555194000E+00 
7.45118430335000E+00 7.57855366549000E+00 7.70810022912000E+00 7.83986121046000E+00 
7.97387446189000E+00 8.11017848282000E+00 8.24881243076000E+00 8.38981613256000E+00 
8.53323009585000E+00 8.67909552070000E+00 8.82745431141000E+00 8.97834908860000E+00 
9.13182320142000E+00 9.28792074000000E+00 9.44668654815000E+00 9.60816623622000E+00 
9.77240619419000E+00 9.93945360503000E+00 1.01093564582000E+01 1.02821635636000E+01 
1.04579245652000E+01 1.06366899559000E+01 1.08185110914000E+01 1.10034402055000E+01 
1.11915304247000E+01 1.13828357837000E+01 1.15774112409000E+01 1.17753126939000E+01 
1.19765969961000E+01 1.21813219725000E+01 1.23895464366000E+01 1.26013302074000E+01 
1.28167341261000E+01 1.30358200743000E+01 1.32586509909000E+01 1.34852908911000E+01 
1.37158048841000E+01 1.39502591921000E+01 1.41887211692000E+01 1.44312593211000E+01 
1.46779433242000E+01 1.49288440460000E+01 1.51840335655000E+01 1.54435851937000E+01 
1.57075734948000E+01 1.59760743074000E+01 1.62491647668000E+01 1.65269233263000E+01 
1.68094297809000E+01 1.70967652889000E+01 1.73890123965000E+01 1.76862550606000E+01 
1.79885786731000E+01 1.82960700859000E+01 1.86088176352000E+01 1.89269111674000E+01 
1.92504420646000E+01 1.95795032710000E+01 1.99141893194000E+01 2.02545963588000E+01 
2.06008221814000E+01 2.09529662512000E+01 2.13111297325000E+01 2.16754155186000E+01 
2.20459282619000E+01 2.24227744033000E+01 2.28060622037000E+01 2.31959017741000E+01 
2.35924051078000E+01 2.39956861127000E+01 2.44058606436000E+01 2.48230465356000E+01 
2.52473636382000E+01 2.56789338494000E+01 2.61178811512000E+01 2.65643316444000E+01 
2.70184135858000E+01 2.74802574242000E+01 2.79499958385000E+01 2.84277637755000E+01 
2.89136984885000E+01 2.94079395772000E+01 2.99106290276000E+01 3.04219112526000E+01 
3.09419331337000E+01 3.14708440631000E+01 3.20087959867000E+01 3.25559434476000E+01 
3.31124436308000E+01 3.36784564079000E+01 3.42541443836000E+01 3.48396729417000E+01 
3.54352102934000E+01 3.60409275249000E+01 3.66569986472000E+01 3.72836006455000E+01 
3.79209135305000E+01 3.85691203898000E+01 3.92284074408000E+01 3.98989640837000E+01 
4.05809829566000E+01 4.12746599904000E+01 4.19801944649000E+01 4.26977890666000E+01 
4.34276499465000E+01 4.41699867796000E+01 4.49250128248000E+01 4.56929449865000E+01 
4.64740038768000E+01 4.72684138788000E+01 4.80764032111000E+01 4.88982039933000E+01 
4.97340523130000E+01 5.05841882933000E+01 5.14488561616000E+01 5.23283043204000E+01 
5.32227854181000E+01 5.41325564219000E+01 5.50578786912000E+01 5.59990180534000E+01 
5.69562448795000E+01 5.79298341622000E+01 5.89200655950000E+01 5.99272236522000E+01 
6.09515976707000E+01 6.19934819335000E+01 6.30531757536000E+01 6.41309835607000E+01 
6.52272149881000E+01 6.63421849617000E+01 6.74762137911000E+01 6.86296272605000E+01 
6.98027567236000E+01 7.09959391975000E+01 7.22095174607000E+01 7.34438401505000E+01 
7.46992618641000E+01 7.59761432599000E+01 7.72748511610000E+01 7.85957586612000E+01 
7.99392452317000E+01 8.13056968301000E+01 8.26955060115000E+01 8.41090720412000E+01 
8.55468010095000E+01 8.70091059479000E+01 8.84964069484000E+01 9.00091312839000E+01 
9.15477135307000E+01 9.31125956937000E+01 9.47042273333000E+01 9.63230656945000E+01 
9.79695758383000E+01 9.96442307750000E+01 1.01347511601000E+02 1.03079907635000E+02 
1.04841916562000E+02 1.06634044572000E+02 1.08456806510000E+02 1.10310726018000E+02 
1.12196335694000E+02 1.14114177235000E+02 1.16064801601000E+02 1.18048769169000E+02 
1.20066649893000E+02 1.22119023471000E+02 1.24206479512000E+02 1.26329617701000E+02 
1.28489047973000E+02 1.30685390693000E+02 1.32919276826000E+02 1.35191348125000E+02 
1.37502257311000E+02 1.39852668266000E+02 1.42243256215000E+02 1.44674707929000E+02 
1.47147721916000E+02 1.49663008626000E+02 1.52221290652000E+02 1.54823302940000E+02 
1.57469792995000E+02 1.60161521105000E+02 1.62899260550000E+02 1.65683797830000E+02 
1.68515932889000E+02 1.71396479344000E+02 1.74326264721000E+02 1.77306130689000E+02 
1.80336933308000E+02 1.83419543268000E+02 1.86554846143000E+02 1.89743742644000E+02 
1.92987148882000E+02 1.96285996622000E+02 1.99641233560000E+02 2.03053823591000E+02 
2.06524747086000E+02 
</PP_R>
    <PP_RAB>
1.75053119821000E-06 1.78045408598000E-06 1.81088846375000E-06 1.84184307474000E-06 
1.87332681160000E-06 1.90534871901000E-06 1.93791799623000E-06 1.97104399979000E-06 
2.00473624615000E-06 2.03900441444000E-06 2.07385834924000E-06 2.10930806342000E-06 
2.14536374098000E-06 2.18203574004000E-06 2.21933459573000E-06 2.25727102331000E-06 
2.29585592118000E-06 2.33510037402000E-06 2.37501565602000E-06 2.41561323406000E-06 
2.45690477103000E-06 2.49890212920000E-06 2.54161737360000E-06 2.58506277548000E-06 
2.62925081588000E-06 2.67419418916000E-06 2.71990580668000E-06 2.76639880051000E-06 
2.81368652718000E-06 2.86178257154000E-06 2.91070075066000E-06 2.96045511778000E-06 
3.01105996637000E-06 3.06252983422000E-06 3.11487950763000E-06 3.16812402564000E-06 
3.22227868438000E-06 3.27735904144000E-06 3.33338092032000E-06 3.39036041504000E-06 
3.44831389471000E-06 3.50725800822000E-06 3.56720968910000E-06 3.62818616028000E-06 
3.69020493915000E-06 3.75328384248000E-06 3.81744099164000E-06 3.88269481772000E-06 
3.94906406688000E-06 4.01656780574000E-06 4.08522542680000E-06 4.15505665408000E-06 
4.22608154873000E-06 4.29832051482000E-06 4.37179430523000E-06 4.44652402754000E-06 
4.52253115017000E-06 4.59983750847000E-06 4.67846531108000E-06 4.75843714625000E-06 
4.83977598832000E-06 4.92250520439000E-06 5.00664856094000E-06 5.09223023074000E-06 
5.17927479975000E-06 5.26780727419000E-06 5.35785308772000E-06 5.44943810876000E-06 
5.54258864792000E-06 5.63733146554000E-06 5.73369377941000E-06 5.83170327255000E-06 
5.93138810119000E-06 6.03277690285000E-06 6.13589880458000E-06 6.24078343130000E-06 
6.34746091434000E-06 6.45596190007000E-06 6.56631755872000E-06 6.67855959334000E-06 
6.79272024890000E-06 6.90883232155000E-06 7.02692916802000E-06 7.14704471527000E-06 
7.26921347017000E-06 7.39347052943000E-06 7.51985158970000E-06 7.64839295782000E-06 
7.77913156123000E-06 7.91210495861000E-06 8.04735135064000E-06 8.18490959098000E-06 
8.32481919747000E-06 8.46712036342000E-06 8.61185396920000E-06 8.75906159399000E-06 
8.90878552767000E-06 9.06106878304000E-06 9.21595510814000E-06 9.37348899880000E-06 
9.53371571147000E-06 9.69668127617000E-06 9.86243250977000E-06 1.00310170294000E-05 
1.02024832661000E-05 1.03768804788000E-05 1.05542587685000E-05 1.07346690924000E-05 
1.09181632791000E-05 1.11047940428000E-05 1.12946149990000E-05 1.14876806795000E-05 
1.16840465483000E-05 1.18837690177000E-05 1.20869054639000E-05 1.22935142441000E-05 
1.25036547131000E-05 1.27173872402000E-05 1.29347732265000E-05 1.31558751229000E-05 
1.33807564476000E-05 1.36094818047000E-05 1.38421169026000E-05 1.40787285728000E-05 
1.43193847892000E-05 1.45641546879000E-05 1.48131085863000E-05 1.50663180043000E-05 
1.53238556838000E-05 1.55857956105000E-05 1.58522130347000E-05 1.61231844930000E-05 
1.63987878302000E-05 1.66791022218000E-05 1.69642081967000E-05 1.72541876603000E-05 
1.75491239182000E-05 1.78491016998000E-05 1.81542071829000E-05 1.84645280184000E-05 
1.87801533555000E-05 1.91011738673000E-05 1.94276817767000E-05 1.97597708831000E-05 
2.00975365894000E-05 2.04410759290000E-05 2.07904875942000E-05 2.11458719641000E-05 
2.15073311338000E-05 2.18749689437000E-05 2.22488910087000E-05 2.26292047497000E-05 
2.30160194233000E-05 2.34094461538000E-05 2.38095979653000E-05 2.42165898135000E-05 
2.46305386194000E-05 2.50515633024000E-05 2.54797848147000E-05 2.59153261762000E-05 
2.63583125094000E-05 2.68088710757000E-05 2.72671313119000E-05 2.77332248673000E-05 
2.82072856416000E-05 2.86894498231000E-05 2.91798559285000E-05 2.96786448418000E-05 
3.01859598554000E-05 3.07019467112000E-05 3.12267536422000E-05 3.17605314152000E-05 
3.23034333743000E-05 3.28556154848000E-05 3.34172363777000E-05 3.39884573961000E-05 
3.45694426405000E-05 3.51603590169000E-05 3.57613762840000E-05 3.63726671025000E-05 
3.69944070844000E-05 3.76267748436000E-05 3.82699520471000E-05 3.89241234673000E-05 
3.95894770350000E-05 4.02662038933000E-05 4.09544984528000E-05 4.16545584472000E-05 
4.23665849901000E-05 4.30907826332000E-05 4.38273594242000E-05 4.45765269675000E-05 
4.53385004844000E-05 4.61134988752000E-05 4.69017447818000E-05 4.77034646521000E-05 
4.85188888048000E-05 4.93482514953000E-05 5.01917909835000E-05 5.10497496020000E-05 
5.19223738257000E-05 5.28099143427000E-05 5.37126261262000E-05 5.46307685077000E-05 
5.55646052519000E-05 5.65144046320000E-05 5.74804395069000E-05 5.84629873998000E-05 
5.94623305777000E-05 6.04787561324000E-05 6.15125560636000E-05 6.25640273617000E-05 
6.36334720942000E-05 6.47211974920000E-05 6.58275160373000E-05 6.69527455542000E-05 
6.80972092993000E-05 6.92612360549000E-05 7.04451602233000E-05 7.16493219231000E-05 
7.28740670866000E-05 7.41197475594000E-05 7.53867212014000E-05 7.66753519896000E-05 
7.79860101227000E-05 7.93190721274000E-05 8.06749209667000E-05 8.20539461496000E-05 
8.34565438434000E-05 8.48831169873000E-05 8.63340754082000E-05 8.78098359383000E-05 
8.93108225351000E-05 9.08374664029000E-05 9.23902061171000E-05 9.39694877496000E-05 
9.55757649976000E-05 9.72094993134000E-05 9.88711600373000E-05 1.00561224532000E-04 
1.02280178321000E-04 1.04028515226000E-04 1.05806737510000E-04 1.07615356022000E-04 
1.09454890344000E-04 1.11325868938000E-04 1.13228829299000E-04 1.15164318113000E-04 
1.17132891406000E-04 1.19135114712000E-04 1.21171563232000E-04 1.23242821996000E-04 
1.25349486039000E-04 1.27492160563000E-04 1.29671461118000E-04 1.31888013775000E-04 
1.34142455306000E-04 1.36435433368000E-04 1.38767606691000E-04 1.41139645261000E-04 
1.43552230520000E-04 1.46006055558000E-04 1.48501825309000E-04 1.51040256762000E-04 
1.53622079157000E-04 1.56248034203000E-04 1.58918876286000E-04 1.61635372687000E-04 
1.64398303803000E-04 1.67208463370000E-04 1.70066658693000E-04 1.72973710876000E-04 
1.75930455059000E-04 1.78937740657000E-04 1.81996431605000E-04 1.85107406607000E-04 
1.88271559385000E-04 1.91489798938000E-04 1.94763049805000E-04 1.98092252327000E-04 
2.01478362921000E-04 2.04922354349000E-04 2.08425216004000E-04 2.11987954191000E-04 
2.15611592414000E-04 2.19297171676000E-04 2.23045750772000E-04 2.26858406596000E-04 
2.30736234450000E-04 2.34680348359000E-04 2.38691881391000E-04 2.42771985982000E-04 
2.46921834266000E-04 2.51142618416000E-04 2.55435550979000E-04 2.59801865234000E-04 
2.64242815537000E-04 2.68759677688000E-04 2.73353749293000E-04 2.78026350141000E-04 
2.82778822580000E-04 2.87612531902000E-04 2.92528866739000E-04 2.97529239458000E-04 
3.02615086571000E-04 3.07787869142000E-04 3.13049073212000E-04 3.18400210223000E-04 
3.23842817453000E-04 3.29378458458000E-04 3.35008723521000E-04 3.40735230107000E-04 
3.46559623330000E-04 3.52483576428000E-04 3.58508791236000E-04 3.64636998683000E-04 
3.70869959283000E-04 3.77209463646000E-04 3.83657332988000E-04 3.90215419658000E-04 
3.96885607667000E-04 4.03669813231000E-04 4.10569985321000E-04 4.17588106223000E-04 
4.24726192108000E-04 4.31986293608000E-04 4.39370496411000E-04 4.46880921856000E-04 
4.54519727542000E-04 4.62289107951000E-04 4.70191295074000E-04 4.78228559058000E-04 
4.86403208853000E-04 4.94717592877000E-04 5.03174099693000E-04 5.11775158691000E-04 
5.20523240788000E-04 5.29420859140000E-04 5.38470569860000E-04 5.47674972755000E-04 
5.57036712072000E-04 5.66558477257000E-04 5.76243003729000E-04 5.86093073665000E-04 
5.96111516800000E-04 6.06301211238000E-04 6.16665084282000E-04 6.27206113272000E-04 
6.37927326441000E-04 6.48831803786000E-04 6.59922677953000E-04 6.71203135136000E-04 
6.82676415991000E-04 6.94345816570000E-04 7.06214689266000E-04 7.18286443776000E-04 
7.30564548082000E-04 7.43052529445000E-04 7.55753975422000E-04 7.68672534891000E-04 
7.81811919106000E-04 7.95175902755000E-04 8.08768325055000E-04 8.22593090844000E-04 
8.36654171709000E-04 8.50955607129000E-04 8.65501505628000E-04 8.80296045961000E-04 
8.95343478313000E-04 9.10648125521000E-04 9.26214384314000E-04 9.42046726577000E-04 
9.58149700635000E-04 9.74527932560000E-04 9.91186127503000E-04 1.00812907104000E-03 
1.02536163055000E-03 1.04288875662000E-03 1.06071548444000E-03 1.07884693530000E-03 
1.09728831800000E-03 1.11604493041000E-03 1.13512216093000E-03 1.15452549008000E-03 
1.17426049206000E-03 1.19433283636000E-03 1.21474828937000E-03 1.23551271605000E-03 
1.25663208164000E-03 1.27811245330000E-03 1.29996000194000E-03 1.32218100393000E-03 
1.34478184294000E-03 1.36776901175000E-03 1.39114911413000E-03 1.41492886672000E-03 
1.43911510101000E-03 1.46371476521000E-03 1.48873492634000E-03 1.51418277221000E-03 
1.54006561349000E-03 1.56639088581000E-03 1.59316615193000E-03 1.62039910385000E-03 
1.64809756508000E-03 1.67626949285000E-03 1.70492298040000E-03 1.73406625934000E-03 
1.76370770196000E-03 1.79385582367000E-03 1.82451928544000E-03 1.85570689631000E-03 
1.88742761585000E-03 1.91969055682000E-03 1.95250498774000E-03 1.98588033557000E-03 
2.01982618838000E-03 2.05435229818000E-03 2.08946858363000E-03 2.12518513298000E-03 
2.16151220689000E-03 2.19846024143000E-03 2.23603985106000E-03 2.27426183166000E-03 
2.31313716368000E-03 2.35267701525000E-03 2.39289274540000E-03 2.43379590733000E-03 
2.47539825173000E-03 2.51771173014000E-03 2.56074849841000E-03 2.60452092018000E-03 
2.64904157040000E-03 2.69432323901000E-03 2.74037893455000E-03 2.78722188792000E-03 
2.83486555621000E-03 2.88332362652000E-03 2.93261001991000E-03 2.98273889541000E-03 
3.03372465408000E-03 3.08558194313000E-03 3.13832566017000E-03 3.19197095744000E-03 
3.24653324620000E-03 3.30202820114000E-03 3.35847176488000E-03 3.41588015257000E-03 
3.47426985653000E-03 3.53365765099000E-03 3.59406059691000E-03 3.65549604690000E-03 
3.71798165016000E-03 3.78153535760000E-03 3.84617542698000E-03 3.91192042813000E-03 
3.97878924832000E-03 4.04680109767000E-03 4.11597551466000E-03 4.18633237177000E-03 
4.25789188117000E-03 4.33067460050000E-03 4.40470143885000E-03 4.47999366269000E-03 
4.55657290201000E-03 4.63446115656000E-03 4.71368080211000E-03 4.79425459695000E-03 
4.87620568835000E-03 4.95955761930000E-03 5.04433433517000E-03 5.13056019069000E-03 
5.21825995687000E-03 5.30745882816000E-03 5.39818242967000E-03 5.49045682452000E-03 
5.58430852138000E-03 5.67976448202000E-03 5.77685212908000E-03 5.87559935398000E-03 
5.97603452487000E-03 6.07818649484000E-03 6.18208461017000E-03 6.28775871877000E-03 
6.39523917879000E-03 6.50455686727000E-03 6.61574318907000E-03 6.72883008586000E-03 
6.84385004534000E-03 6.96083611049000E-03 7.07982188916000E-03 7.20084156366000E-03 
7.32392990060000E-03 7.44912226088000E-03 7.57645460983000E-03 7.70596352758000E-03 
7.83768621954000E-03 7.97166052708000E-03 8.10792493843000E-03 8.24651859973000E-03 
8.38748132623000E-03 8.53085361382000E-03 8.67667665058000E-03 8.82499232863000E-03 