<UPF version="2.0.1">
  <PP_INFO>
Generated using Vanderbilt code, version   7  3  6
Author: kfg        Generation date:   22    9   15
Automatically converted from original format
1        The Pseudo was generated with a Scalar-Relativistic Calculation
2.00000000000E+00    Local Potential cutoff radius
nl pn  l   occ               Rcut            Rcut US             E pseu
3D  3  2 10.00      0.00000000000      1.70000000000     -2.15445107900
4S  4  0  2.00      0.00000000000      1.90000000000     -0.86312655900
4P  4  1  2.00      0.00000000000      1.90000000000     -0.28643765400
</PP_INFO>
  <PP_HEADER element="Ge" pseudo_type="US" relativistic="scalar" is_ultrasoft="T" is_paw="F" is_coulomb="F" has_so="F" has_wfc="F" has_gipaw="F" core_correction="T" functional="PBESOL" z_valence="14.0" total_psenergy="-212.830141943" wfc_cutoff="0.0" rho_cutoff="0.0" l_max="2" mesh_size="873" number_of_wfc="3" number_of_proj="6"/>
  <PP_MESH>
    <PP_R>
0.00000000000000E+00 1.32408778375000E-06 2.67080900025000E-06 4.04055053644000E-06 
5.43370589256000E-06 6.85067529519000E-06 8.29186581221000E-06 9.75769146978000E-06 
1.12485733712000E-05 1.27649398181000E-05 1.43072264331000E-05 1.58758762854000E-05 
1.74713400176000E-05 1.90940759758000E-05 2.07445503404000E-05 2.24232372608000E-05 
2.41306189913000E-05 2.58671860297000E-05 2.76334372581000E-05 2.94298800861000E-05 
3.12570305972000E-05 3.31154136963000E-05 3.50055632609000E-05 3.69280222943000E-05 
3.88833430819000E-05 4.08720873495000E-05 4.28948264249000E-05 4.49521414018000E-05 
4.70446233070000E-05 4.91728732700000E-05 5.13375026960000E-05 5.35391334410000E-05 
5.57783979910000E-05 5.80559396433000E-05 6.03724126916000E-05 6.27284826138000E-05 
6.51248262631000E-05 6.75621320627000E-05 7.00411002034000E-05 7.25624428449000E-05 
7.51268843199000E-05 7.77351613430000E-05 8.03880232217000E-05 8.30862320718000E-05 
8.58305630365000E-05 8.86218045091000E-05 9.14607583591000E-05 9.43482401631000E-05 
9.72850794388000E-05 1.00272119883000E-04 1.03310219615000E-04 1.06400251422000E-04 
1.09543103010000E-04 1.12739677260000E-04 1.15990892486000E-04 1.19297682698000E-04 
1.22660997874000E-04 1.26081804229000E-04 1.29561084495000E-04 1.33099838201000E-04 
1.36699081962000E-04 1.40359849773000E-04 1.44083193301000E-04 1.47870182190000E-04 
1.51721904368000E-04 1.55639466362000E-04 1.59623993611000E-04 1.63676630792000E-04 
1.67798542150000E-04 1.71990911829000E-04 1.76254944218000E-04 1.80591864289000E-04 
1.85002917957000E-04 1.89489372430000E-04 1.94052516582000E-04 1.98693661314000E-04 
2.03414139939000E-04 2.08215308557000E-04 2.13098546452000E-04 2.18065256485000E-04 
2.23116865493000E-04 2.28254824708000E-04 2.33480610164000E-04 2.38795723130000E-04 
2.44201690534000E-04 2.49700065406000E-04 2.55292427323000E-04 2.60980382863000E-04 
2.66765566064000E-04 2.72649638898000E-04 2.78634291745000E-04 2.84721243880000E-04 
2.90912243967000E-04 2.97209070560000E-04 3.03613532616000E-04 3.10127470013000E-04 
3.16752754079000E-04 3.23491288129000E-04 3.30345008014000E-04 3.37315882676000E-04 
3.44405914712000E-04 3.51617140950000E-04 3.58951633036000E-04 3.66411498029000E-04 
3.73998879003000E-04 3.81715955665000E-04 3.89564944983000E-04 3.97548101819000E-04 
4.05667719580000E-04 4.13926130875000E-04 4.22325708185000E-04 4.30868864547000E-04 
4.39558054243000E-04 4.48395773511000E-04 4.57384561256000E-04 4.66526999782000E-04 
4.75825715536000E-04 4.85283379858000E-04 4.94902709752000E-04 5.04686468666000E-04 
5.14637467284000E-04 5.24758564336000E-04 5.35052667417000E-04 5.45522733824000E-04 
5.56171771403000E-04 5.67002839418000E-04 5.78019049425000E-04 5.89223566168000E-04 
6.00619608487000E-04 6.12210450245000E-04 6.23999421266000E-04 6.35989908294000E-04 
6.48185355964000E-04 6.60589267792000E-04 6.73205207181000E-04 6.86036798447000E-04 
6.99087727858000E-04 7.12361744693000E-04 7.25862662321000E-04 7.39594359293000E-04 
7.53560780461000E-04 7.67765938107000E-04 7.82213913098000E-04 7.96908856058000E-04 
8.11854988560000E-04 8.27056604337000E-04 8.42518070520000E-04 8.58243828890000E-04 
8.74238397152000E-04 8.90506370236000E-04 9.07052421616000E-04 9.23881304653000E-04 
9.40997853958000E-04 9.58406986786000E-04 9.76113704443000E-04 9.94123093727000E-04 
1.01244032839000E-03 1.03107067061000E-03 1.05001947253000E-03 1.06929217778000E-03 
1.08889432302000E-03 1.10883153958000E-03 1.12910955503000E-03 1.14973419486000E-03 
1.17071138412000E-03 1.19204714915000E-03 1.21374761931000E-03 1.23581902873000E-03 
1.25826771808000E-03 1.28110013645000E-03 1.30432284315000E-03 1.32794250960000E-03 
1.35196592129000E-03 1.37639997968000E-03 1.40125170419000E-03 1.42652823425000E-03 
1.45223683132000E-03 1.47838488097000E-03 1.50497989504000E-03 1.53202951376000E-03 
1.55954150796000E-03 1.58752378131000E-03 1.61598437257000E-03 1.64493145791000E-03 
1.67437335328000E-03 1.70431851676000E-03 1.73477555101000E-03 1.76575320577000E-03 
1.79726038029000E-03 1.82930612600000E-03 1.86189964900000E-03 1.89505031279000E-03 
1.92876764091000E-03 1.96306131970000E-03 1.99794120107000E-03 2.03341730534000E-03 
2.06949982409000E-03 2.10619912314000E-03 2.14352574550000E-03 2.18149041437000E-03 
2.22010403627000E-03 2.25937770414000E-03 2.29932270056000E-03 2.33995050095000E-03 
2.38127277688000E-03 2.42330139944000E-03 2.46604844266000E-03 2.50952618692000E-03 
2.55374712254000E-03 2.59872395334000E-03 2.64446960029000E-03 2.69099720523000E-03 
2.73832013465000E-03 2.78645198350000E-03 2.83540657913000E-03 2.88519798525000E-03 
2.93584050597000E-03 2.98734868991000E-03 3.03973733436000E-03 3.09302148958000E-03 
3.14721646306000E-03 3.20233782398000E-03 3.25840140764000E-03 3.31542332002000E-03 
3.37341994241000E-03 3.43240793612000E-03 3.49240424725000E-03 3.55342611160000E-03 
3.61549105955000E-03 3.67861692117000E-03 3.74282183129000E-03 3.80812423475000E-03 
3.87454289166000E-03 3.94209688281000E-03 4.01080561516000E-03 4.08068882740000E-03 
4.15176659562000E-03 4.22405933910000E-03 4.29758782613000E-03 4.37237318003000E-03 
4.44843688518000E-03 4.52580079322000E-03 4.60448712929000E-03 4.68451849847000E-03 
4.76591789220000E-03 4.84870869498000E-03 4.93291469098000E-03 5.01856007096000E-03 
5.10566943919000E-03 5.19426782049000E-03 5.28438066748000E-03 5.37603386782000E-03 
5.46925375171000E-03 5.56406709941000E-03 5.66050114897000E-03 5.75858360402000E-03 
5.85834264176000E-03 5.95980692102000E-03 6.06300559053000E-03 6.16796829728000E-03 
6.27472519500000E-03 6.38330695290000E-03 6.49374476442000E-03 6.60607035619000E-03 
6.72031599719000E-03 6.83651450798000E-03 6.95469927015000E-03 7.07490423588000E-03 
7.19716393775000E-03 7.32151349859000E-03 7.44798864162000E-03 7.57662570072000E-03 
7.70746163082000E-03 7.84053401854000E-03 7.97588109302000E-03 8.11354173684000E-03 
8.25355549724000E-03 8.39596259748000E-03 8.54080394835000E-03 8.68812115997000E-03 
8.83795655372000E-03 8.99035317442000E-03 9.14535480266000E-03 9.30300596741000E-03 
9.46335195881000E-03 9.62643884115000E-03 9.79231346613000E-03 9.96102348633000E-03 
1.01326173689000E-02 1.03071444094000E-02 1.04846547460000E-02 1.06651993742000E-02 
1.08488301608000E-02 1.10355998594000E-02 1.12255621253000E-02 1.14187715311000E-02 
1.16152835820000E-02 1.18151547322000E-02 1.20184424007000E-02 1.22252049882000E-02 
1.24355018936000E-02 1.26493935311000E-02 1.28669413477000E-02 1.30882078405000E-02 
1.33132565752000E-02 1.35421522040000E-02 1.37749604841000E-02 1.40117482969000E-02 
1.42525836668000E-02 1.44975357813000E-02 1.47466750103000E-02 1.50000729267000E-02 
1.52578023269000E-02 1.55199372514000E-02 1.57865530067000E-02 1.60577261862000E-02 
1.63335346927000E-02 1.66140577608000E-02 1.68993759792000E-02 1.71895713143000E-02 
1.74847271337000E-02 1.77849282300000E-02 1.80902608450000E-02 1.84008126949000E-02 
1.87166729952000E-02 1.90379324866000E-02 1.93646834607000E-02 1.96970197866000E-02 
2.00350369382000E-02 2.03788320213000E-02 2.07285038015000E-02 2.10841527328000E-02 
2.14458809862000E-02 2.18137924793000E-02 2.21879929059000E-02 2.25685897665000E-02 
2.29556923994000E-02 2.33494120114000E-02 2.37498617108000E-02 2.41571565389000E-02 
2.45714135037000E-02 2.49927516131000E-02 2.54212919095000E-02 2.58571575041000E-02 
2.63004736129000E-02 2.67513675918000E-02 2.72099689740000E-02 2.76764095067000E-02 
2.81508231895000E-02 2.86333463120000E-02 2.91241174939000E-02 2.96232777242000E-02 
3.01309704021000E-02 3.06473413777000E-02 3.11725389945000E-02 3.17067141316000E-02 
3.22500202471000E-02 3.28026134224000E-02 3.33646524069000E-02 3.39362986634000E-02 
3.45177164149000E-02 3.51090726914000E-02 3.57105373782000E-02 3.63222832643000E-02 
3.69444860926000E-02 3.75773246099000E-02 3.82209806185000E-02 3.88756390282000E-02 
3.95414879098000E-02 4.02187185488000E-02 4.09075255004000E-02 4.16081066455000E-02 
4.23206632476000E-02 4.30454000103000E-02 4.37825251365000E-02 4.45322503880000E-02 
4.52947911463000E-02 4.60703664747000E-02 4.68591991810000E-02 4.76615158814000E-02 
4.84775470662000E-02 4.93075271651000E-02 5.01516946155000E-02 5.10102919304000E-02 
5.18835657681000E-02 5.27717670032000E-02 5.36751507990000E-02 5.45939766799000E-02 
5.55285086069000E-02 5.64790150530000E-02 5.74457690802000E-02 5.84290484183000E-02 
5.94291355445000E-02 6.04463177643000E-02 6.14808872945000E-02 6.25331413471000E-02 
6.36033822141000E-02 6.46919173551000E-02 6.57990594851000E-02 6.69251266647000E-02 
6.80704423912000E-02 6.92353356917000E-02 7.04201412173000E-02 7.16251993399000E-02 
7.28508562493000E-02 7.40974640530000E-02 7.53653808774000E-02 7.66549709703000E-02 
7.79666048061000E-02 7.93006591918000E-02 8.06575173754000E-02 8.20375691560000E-02 
8.34412109958000E-02 8.48688461338000E-02 8.63208847022000E-02 8.77977438433000E-02 
8.92998478304000E-02 9.08276281888000E-02 9.23815238202000E-02 9.39619811287000E-02 
9.55694541493000E-02 9.72044046777000E-02 9.88673024037000E-02 1.00558625046000E-01 
1.02278858487000E-01 1.04028496919000E-01 1.05808042978000E-01 1.07618007894000E-01 
1.09458911633000E-01 1.11331283053000E-01 1.13235660049000E-01 1.15172589712000E-01 
1.17142628485000E-01 1.19146342321000E-01 1.21184306848000E-01 1.23257107535000E-01 
1.25365339857000E-01 1.27509609468000E-01 1.29690532376000E-01 1.31908735116000E-01 
1.34164854937000E-01 1.36459539978000E-01 1.38793449457000E-01 1.41167253861000E-01 
1.43581635139000E-01 1.46037286895000E-01 1.48534914590000E-01 1.51075235746000E-01 
1.53658980146000E-01 1.56286890051000E-01 1.58959720408000E-01 1.61678239070000E-01 
1.64443227014000E-01 1.67255478568000E-01 1.70115801638000E-01 1.73025017939000E-01 
1.75983963233000E-01 1.78993487566000E-01 1.82054455518000E-01 1.85167746445000E-01 
1.88334254736000E-01 1.91554890067000E-01 1.94830577664000E-01 1.98162258568000E-01 
2.01550889908000E-01 2.04997445172000E-01 2.08502914488000E-01 2.12068304909000E-01 
2.15694640704000E-01 2.19382963648000E-01 2.23134333326000E-01 2.26949827433000E-01 
2.30830542086000E-01 2.34777592141000E-01 2.38792111507000E-01 2.42875253480000E-01 
2.47028191066000E-01 2.51252117324000E-01 2.55548245706000E-01 2.59917810408000E-01 
2.64362066720000E-01 2.68882291391000E-01 2.73479782994000E-01 2.78155862300000E-01 
2.82911872656000E-01 2.87749180371000E-01 2.92669175111000E-01 2.97673270294000E-01 
3.02762903501000E-01 3.07939536884000E-01 3.13204657590000E-01 3.18559778187000E-01 
3.24006437096000E-01 3.29546199038000E-01 3.35180655479000E-01 3.40911425090000E-01 
3.46740154209000E-01 3.52668517318000E-01 3.58698217520000E-01 3.64830987032000E-01 
3.71068587680000E-01 3.77412811406000E-01 3.83865480783000E-01 3.90428449536000E-01 
3.97103603082000E-01 4.03892859061000E-01 4.10798167896000E-01 4.17821513349000E-01 
4.24964913090000E-01 4.32230419280000E-01 4.39620119159000E-01 4.47136135644000E-01 
4.54780627941000E-01 4.62555792165000E-01 4.70463861971000E-01 4.78507109194000E-01 
4.86687844502000E-01 4.95008418063000E-01 5.03471220218000E-01 5.12078682164000E-01 
5.20833276659000E-01 5.29737518729000E-01 5.38793966391000E-01 5.48005221386000E-01 
5.57373929930000E-01 5.66902783471000E-01 5.76594519465000E-01 5.86451922160000E-01 
5.96477823397000E-01 6.06675103423000E-01 6.17046691720000E-01 6.27595567844000E-01 
6.38324762283000E-01 6.49237357328000E-01 6.60336487954000E-01 6.71625342729000E-01 
6.83107164722000E-01 6.94785252437000E-01 7.06662960763000E-01 7.18743701937000E-01 
7.31030946521000E-01 7.43528224402000E-01 7.56239125808000E-01 7.69167302334000E-01 
7.82316467995000E-01 7.95690400292000E-01 8.09292941296000E-01 8.23127998755000E-01 
8.37199547213000E-01 8.51511629154000E-01 8.66068356161000E-01 8.80873910100000E-01 
8.95932544322000E-01 9.11248584879000E-01 9.26826431774000E-01 9.42670560222000E-01 
9.58785521933000E-01 9.75175946424000E-01 9.91846542347000E-01 1.00880209884000E+00 
1.02604748691000E+00 1.04358766082000E+00 1.06142765953000E+00 1.07957260811000E+00 
1.09802771927000E+00 1.11679829479000E+00 1.13588972711000E+00 1.15530750082000E+00 
1.17505719427000E+00 1.19514448117000E+00 1.21557513221000E+00 1.23635501671000E+00 
1.25749010433000E+00 1.27898646678000E+00 1.30085027955000E+00 1.32308782368000E+00 
1.34570548759000E+00 1.36870976891000E+00 1.39210727631000E+00 1.41590473144000E+00 
1.44010897085000E+00 1.46472694796000E+00 1.48976573503000E+00 1.51523252522000E+00 
1.54113463465000E+00 1.56747950449000E+00 1.59427470311000E+00 1.62152792826000E+00 
1.64924700925000E+00 1.67743990925000E+00 1.70611472753000E+00 1.73527970181000E+00 
1.76494321062000E+00 1.79511377571000E+00 1.82580006451000E+00 1.85701089259000E+00 
1.88875522622000E+00 1.92104218493000E+00 1.95388104413000E+00 1.98728123781000E+00 
2.02125236118000E+00 2.05580417349000E+00 2.09094660082000E+00 2.12668973889000E+00 
2.16304385603000E+00 2.20001939606000E+00 2.23762698135000E+00 2.27587741582000E+00 
2.31478168809000E+00 2.35435097459000E+00 2.39459664283000E+00 2.43553025459000E+00 
2.47716356932000E+00 2.51950854747000E+00 2.56257735391000E+00 2.60638236150000E+00 
2.65093615455000E+00 2.69625153252000E+00 2.74234151363000E+00 2.78921933865000E+00 
2.83689847465000E+00 2.88539261895000E+00 2.93471570297000E+00 2.98488189627000E+00 
3.03590561063000E+00 3.08780150418000E+00 3.14058448561000E+00 3.19426971843000E+00 
3.24887262539000E+00 3.30440889284000E+00 3.36089447527000E+00 3.41834559991000E+00 
3.47677877133000E+00 3.53621077628000E+00 3.59665868840000E+00 3.65813987322000E+00 
3.72067199309000E+00 3.78427301228000E+00 3.84896120213000E+00 3.91475514631000E+00 
3.98167374614000E+00 4.04973622604000E+00 4.11896213904000E+00 4.18937137242000E+00 
4.26098415337000E+00 4.33382105488000E+00 4.40790300156000E+00 4.48325127573000E+00 
4.55988752349000E+00 4.63783376095000E+00 4.71711238056000E+00 4.79774615752000E+00 
4.87975825638000E+00 4.96317223760000E+00 5.04801206442000E+00 5.13430210967000E+00 
5.22206716282000E+00 5.31133243707000E+00 5.40212357661000E+00 5.49446666396000E+00 
5.58838822751000E+00 5.68391524912000E+00 5.78107517184000E+00 5.87989590785000E+00 
5.98040584642000E+00 6.08263386211000E+00 6.18660932307000E+00 6.29236209942000E+00 
6.39992257189000E+00 6.50932164052000E+00 6.62059073356000E+00 6.73376181645000E+00 
6.84886740106000E+00 6.96594055500000E+00 7.08501491111000E+00 7.20612467716000E+00 
7.32930464564000E+00 7.45459020377000E+00 7.58201734366000E+00 7.71162267268000E+00 
7.84344342391000E+00 7.97751746691000E+00 8.11388331856000E+00 8.25258015414000E+00 
8.39364781855000E+00 8.53712683780000E+00 8.68305843065000E+00 8.83148452042000E+00 
8.98244774704000E+00 9.13599147934000E+00 9.29215982746000E+00 9.45099765553000E+00 
9.61255059460000E+00 9.77686505569000E+00 9.94398824318000E+00 1.01139681683000E+01 
1.02868536631000E+01 1.04626943940000E+01 1.06415408769000E+01 1.08234444908000E+01 
1.10084574931000E+01 1.11966330345000E+01 1.13880251742000E+01 1.15826888953000E+01 
1.17806801211000E+01 1.19820557306000E+01 1.21868735751000E+01 1.23951924948000E+01 
1.26070723356000E+01 1.28225739667000E+01 1.30417592974000E+01 1.32646912954000E+01 
1.34914340048000E+01 1.37220525644000E+01 1.39566132264000E+01 1.41951833755000E+01 
1.44378315484000E+01 1.46846274532000E+01 1.49356419895000E+01 1.51909472691000E+01 
1.54506166360000E+01 1.57147246884000E+01 1.59833472994000E+01 1.62565616390000E+01 
1.65344461964000E+01 1.68170808025000E+01 1.71045466528000E+01 1.73969263305000E+01 
1.76943038309000E+01 1.79967645845000E+01 1.83043954827000E+01 1.86172849017000E+01 
1.89355227286000E+01 1.92592003871000E+01 1.95884108634000E+01 1.99232487333000E+01 
2.02638101894000E+01 2.06101930682000E+01 2.09624968789000E+01 2.13208228316000E+01 
2.16852738664000E+01 2.20559546829000E+01 2.24329717707000E+01 2.28164334395000E+01 
2.32064498503000E+01 2.36031330473000E+01 2.40065969900000E+01 2.44169575857000E+01 
2.48343327231000E+01 2.52588423059000E+01 2.56906082877000E+01 2.61297547063000E+01 
2.65764077200000E+01 2.70306956437000E+01 2.74927489854000E+01 2.79627004841000E+01 
2.84406851479000E+01 2.89268402924000E+01 2.94213055806000E+01 2.99242230628000E+01 
3.04357372175000E+01 3.09559949928000E+01 3.14851458487000E+01 3.20233417999000E+01 
3.25707374599000E+01 3.31274900847000E+01 3.36937596186000E+01 3.42697087399000E+01 
3.48555029076000E+01 3.54513104091000E+01 3.60573024083000E+01 3.66736529950000E+01 
3.73005392348000E+01 3.79381412199000E+01 3.85866421212000E+01 3.92462282403000E+01 
3.99170890636000E+01 4.05994173164000E+01 4.12934090184000E+01 4.19992635400000E+01 
4.27171836596000E+01 4.34473756217000E+01 4.41900491963000E+01 4.49454177391000E+01 
4.57136982530000E+01 4.64951114501000E+01 4.72898818152000E+01 4.80982376705000E+01 
4.89204112410000E+01 4.97566387213000E+01 5.06071603433000E+01 5.14722204454000E+01 
5.23520675427000E+01 5.32469543982000E+01 5.41571380955000E+01 5.50828801129000E+01 
5.60244463981000E+01 5.69821074449000E+01 5.79561383707000E+01 5.89468189959000E+01 
5.99544339238000E+01 6.09792726225000E+01 6.20216295086000E+01 6.30818040309000E+01 
6.41601007571000E+01 6.52568294609000E+01 6.63723052113000E+01 6.75068484629000E+01 
6.86607851480000E+01 6.98344467703000E+01 7.10281705000000E+01 7.22422992709000E+01 
7.34771818787000E+01 7.47331730813000E+01 7.60106337005000E+01 7.73099307263000E+01 
7.86314374213000E+01 7.99755334290000E+01 8.13426048822000E+01 8.27330445139000E+01 
8.41472517705000E+01 8.55856329266000E+01 8.70486012011000E+01 8.85365768765000E+01 
9.00499874195000E+01 9.15892676035000E+01 9.31548596340000E+01 9.47472132754000E+01 
9.63667859799000E+01 9.80140430196000E+01 9.96894576193000E+01 1.01393511093000E+02 
1.03126692984000E+02 1.04889501199000E+02 1.06682442161000E+02 1.08506030946000E+02 
1.10360791437000E+02 1.12247256470000E+02 1.14165967989000E+02 1.16117477205000E+02 
1.18102344746000E+02 1.20121140829000E+02 1.22174445413000E+02 1.24262848373000E+02 
1.26386949667000E+02 1.28547359508000E+02 1.30744698541000E+02 1.32979598017000E+02 
1.35252699981000E+02 1.37564657451000E+02 1.39916134607000E+02 1.42307806983000E+02 
1.44740361661000E+02 1.47214497466000E+02 1.49730925170000E+02 1.52290367693000E+02 
1.54893560315000E+02 1.57541250881000E+02 1.60234200022000E+02 1.62973181370000E+02 
1.65758981782000E+02 1.68592401565000E+02 1.71474254704000E+02 1.74405369100000E+02 
1.77386586806000E+02 1.80418764269000E+02 1.83502772573000E+02 1.86639497695000E+02 
1.89829840756000E+02 1.93074718279000E+02 1.96375062454000E+02 1.99731821407000E+02 
2.03145959470000E+02 
</PP_R>
    <PP_RAB>
1.31289839866000E-06 1.33534056448000E-06 1.35816634781000E-06 1.38138230606000E-06 
1.40499510870000E-06 1.42901153925000E-06 1.45343849717000E-06 1.47828299984000E-06 
1.50355218461000E-06 1.52925331083000E-06 1.55539376193000E-06 1.58198104756000E-06 
1.60902280574000E-06 1.63652680503000E-06 1.66450094680000E-06 1.69295326749000E-06 
1.72189194088000E-06 1.75132528052000E-06 1.78126174202000E-06 1.81170992554000E-06 
1.84267857827000E-06 1.87417659690000E-06 1.90621303020000E-06 1.93879708161000E-06 
1.97193811191000E-06 2.00564564187000E-06 2.03992935501000E-06 2.07479910038000E-06 
2.11026489539000E-06 2.14633692866000E-06 2.18302556300000E-06 2.22034133834000E-06 
2.25829497478000E-06 2.29689737566000E-06 2.33615963072000E-06 2.37609301923000E-06 
2.41670901329000E-06 2.45801928108000E-06 2.50003569024000E-06 2.54277031128000E-06 
2.58623542103000E-06 2.63044350617000E-06 2.67540726682000E-06 2.72113962021000E-06 
2.76765370436000E-06 2.81496288186000E-06 2.86308074373000E-06 2.91202111329000E-06 
2.96179805016000E-06 3.01242585431000E-06 3.06391907010000E-06 3.11629249056000E-06 
3.16956116154000E-06 3.22374038612000E-06 3.27884572892000E-06 3.33489302066000E-06 
3.39189836262000E-06 3.44987813135000E-06 3.50884898331000E-06 3.56882785969000E-06 
3.62983199124000E-06 3.69187890329000E-06 3.75498642070000E-06 3.81917267306000E-06 
3.88445609981000E-06 3.95085545564000E-06 4.01838981579000E-06 4.08707858157000E-06 
4.15694148594000E-06 4.22799859916000E-06 4.30027033456000E-06 4.37377745441000E-06 
4.44854107589000E-06 4.52458267714000E-06 4.60192410344000E-06 4.68058757348000E-06 
4.76059568575000E-06 4.84197142505000E-06 4.92473816904000E-06 5.00891969501000E-06 
5.09454018668000E-06 5.18162424116000E-06 5.27019687602000E-06 5.36028353645000E-06 
5.45191010263000E-06 5.54510289707000E-06 5.63988869227000E-06 5.73629471836000E-06 
5.83434867092000E-06 5.93407871896000E-06 6.03551351298000E-06 6.13868219324000E-06 
6.24361439810000E-06 6.35034027256000E-06 6.45889047690000E-06 6.56929619549000E-06 
6.68158914575000E-06 6.79580158728000E-06 6.91196633111000E-06 7.03011674910000E-06 
7.15028678360000E-06 7.27251095713000E-06 7.39682438233000E-06 7.52326277203000E-06 
7.65186244955000E-06 7.78266035909000E-06 7.91569407634000E-06 8.05100181932000E-06 
8.18862245934000E-06 8.32859553213000E-06 8.47096124925000E-06 8.61576050962000E-06 
8.76303491126000E-06 8.91282676325000E-06 9.06517909791000E-06 9.22013568310000E-06 
9.37774103486000E-06 9.53804043015000E-06 9.70107991988000E-06 9.86690634215000E-06 
1.00355673357000E-05 1.02071113535000E-05 1.03815876769000E-05 1.05590464296000E-05 
1.07395385919000E-05 1.09231160159000E-05 1.11098314398000E-05 1.12997385032000E-05 
1.14928917628000E-05 1.16893467079000E-05 1.18891597760000E-05 1.20923883697000E-05 
1.22990908726000E-05 1.25093266663000E-05 1.27231561475000E-05 1.29406407452000E-05 
1.31618429386000E-05 1.33868262748000E-05 1.36156553871000E-05 1.38483960138000E-05 
1.40851150166000E-05 1.43258804005000E-05 1.45707613325000E-05 1.48198281624000E-05 
1.50731524420000E-05 1.53308069467000E-05 1.55928656956000E-05 1.58594039731000E-05 
1.61304983504000E-05 1.64062267077000E-05 1.66866682566000E-05 1.69719035623000E-05 
1.72620145674000E-05 1.75570846154000E-05 1.78571984740000E-05 1.81624423601000E-05 
1.84729039645000E-05 1.87886724768000E-05 1.91098386110000E-05 1.94364946321000E-05 
1.97687343820000E-05 2.01066533068000E-05 2.04503484839000E-05 2.07999186505000E-05 
2.11554642312000E-05 2.15170873674000E-05 2.18848919464000E-05 2.22589836313000E-05 
2.26394698916000E-05 2.30264600334000E-05 2.34200652316000E-05 2.38203985614000E-05 
2.42275750308000E-05 2.46417116136000E-05 2.50629272833000E-05 2.54913430470000E-05 
2.59270819804000E-05 2.63702692626000E-05 2.68210322130000E-05 2.72795003269000E-05 
2.77458053133000E-05 2.82200811327000E-05 2.87024640354000E-05 2.91930926005000E-05 
2.96921077762000E-05 3.01996529199000E-05 3.07158738396000E-05 3.12409188354000E-05 
3.17749387426000E-05 3.23180869749000E-05 3.28705195682000E-05 3.34323952256000E-05 
3.40038753633000E-05 3.45851241564000E-05 3.51763085864000E-05 3.57775984891000E-05 
3.63891666036000E-05 3.70111886214000E-05 3.76438432376000E-05 3.82873122015000E-05 
3.89417803693000E-05 3.96074357570000E-05 4.02844695946000E-05 4.09730763808000E-05 
4.16734539389000E-05 4.23858034740000E-05 4.31103296302000E-05 4.38472405498000E-05 
4.45967479332000E-05 4.53590670993000E-05 4.61344170477000E-05 4.69230205213000E-05 
4.77251040707000E-05 4.85408981190000E-05 4.93706370280000E-05 5.02145591656000E-05 
5.10729069745000E-05 5.19459270411000E-05 5.28338701675000E-05 5.37369914423000E-05 
5.46555503150000E-05 5.55898106696000E-05 5.65400409011000E-05 5.75065139922000E-05 
5.84895075920000E-05 5.94893040956000E-05 6.05061907250000E-05 6.15404596122000E-05 
6.25924078826000E-05 6.36623377405000E-05 6.47505565562000E-05 6.58573769537000E-05 
6.69831169013000E-05 6.81280998022000E-05 6.92926545878000E-05 7.04771158122000E-05 
7.16818237482000E-05 7.29071244851000E-05 7.41533700280000E-05 7.54209183991000E-05 
7.67101337407000E-05 7.80213864193000E-05 7.93550531324000E-05 8.07115170167000E-05 
8.20911677581000E-05 8.34944017033000E-05 8.49216219745000E-05 8.63732385844000E-05 
8.78496685544000E-05 8.93513360341000E-05 9.08786724237000E-05 9.24321164973000E-05 
9.40121145293000E-05 9.56191204226000E-05 9.72535958388000E-05 9.89160103313000E-05 
1.00606841479000E-04 1.02326575026000E-04 1.04075705018000E-04 1.05854733946000E-04 
1.07664172890000E-04 1.09504541668000E-04 1.11376368982000E-04 1.13280192571000E-04 
1.15216559368000E-04 1.17186025653000E-04 1.19189157215000E-04 1.21226529515000E-04 
1.23298727852000E-04 1.25406347527000E-04 1.27549994019000E-04 1.29730283157000E-04 
1.31947841294000E-04 1.34203305493000E-04 1.36497323704000E-04 1.38830554955000E-04 
1.41203669538000E-04 1.43617349203000E-04 1.46072287354000E-04 1.48569189246000E-04 
1.51108772191000E-04 1.53691765762000E-04 1.56318912003000E-04 1.58990965643000E-04 
1.61708694311000E-04 1.64472878757000E-04 1.67284313079000E-04 1.70143804947000E-04 
1.73052175837000E-04 1.76010261269000E-04 1.79018911043000E-04 1.82078989486000E-04 
1.85191375700000E-04 1.88356963812000E-04 1.91576663235000E-04 1.94851398926000E-04 
1.98182111653000E-04 2.01569758266000E-04 2.05015311970000E-04 2.08519762606000E-04 
2.12084116935000E-04 2.15709398926000E-04 2.19396650054000E-04 2.23146929594000E-04 
2.26961314928000E-04 2.30840901857000E-04 2.34786804909000E-04 2.38800157667000E-04 
2.42882113090000E-04 2.47033843844000E-04 2.51256542640000E-04 2.55551422580000E-04 
2.59919717498000E-04 2.64362682321000E-04 2.68881593427000E-04 2.73477749012000E-04 
2.78152469462000E-04 2.82907097734000E-04 2.87742999741000E-04 2.92661564744000E-04 
2.97664205750000E-04 3.02752359923000E-04 3.07927488991000E-04 3.13191079668000E-04 
3.18544644081000E-04 3.23989720206000E-04 3.29527872309000E-04 3.35160691392000E-04 
3.40889795657000E-04 3.46716830963000E-04 3.52643471306000E-04 3.58671419294000E-04 
3.64802406640000E-04 3.71038194658000E-04 3.77380574770000E-04 3.83831369018000E-04 
3.90392430591000E-04 3.97065644355000E-04 4.03852927395000E-04 4.10756229566000E-04 
4.17777534054000E-04 4.24918857942000E-04 4.32182252796000E-04 4.39569805249000E-04 
4.47083637600000E-04 4.54725908428000E-04 4.62498813211000E-04 4.70404584954000E-04 
4.78445494830000E-04 4.86623852840000E-04 4.94942008465000E-04 5.03402351352000E-04 
5.12007311993000E-04 5.20759362427000E-04 5.29661016949000E-04 5.38714832832000E-04 
5.47923411061000E-04 5.57289397084000E-04 5.66815481567000E-04 5.76504401169000E-04 
5.86358939329000E-04 5.96381927067000E-04 6.06576243791000E-04 6.16944818133000E-04 
6.27490628782000E-04 6.38216705347000E-04 6.49126129221000E-04 6.60222034470000E-04 
6.71507608735000E-04 6.82986094141000E-04 6.94660788236000E-04 7.06535044933000E-04 
7.18612275476000E-04 7.30895949420000E-04 7.43389595627000E-04 7.56096803280000E-04 
7.69021222913000E-04 7.82166567462000E-04 7.95536613331000E-04 8.09135201474000E-04 
8.22966238503000E-04 8.37033697807000E-04 8.51341620696000E-04 8.65894117558000E-04 
8.80695369044000E-04 8.95749627267000E-04 9.11061217025000E-04 9.26634537041000E-04 
9.42474061228000E-04 9.58584339975000E-04 9.74970001453000E-04 9.91635752947000E-04 
1.00858638220000E-03 1.02582675881000E-03 1.04336183559000E-03 1.06119665004000E-03 
1.07933632576000E-03 1.09778607391000E-03 1.11655119476000E-03 1.13563707916000E-03 
1.15504921011000E-03 1.17479316436000E-03 1.19487461395000E-03 1.21529932789000E-03 
1.23607317381000E-03 1.25720211964000E-03 1.27869223530000E-03 1.30054969451000E-03 
1.32278077647000E-03 1.34539186775000E-03 1.36838946408000E-03 1.39178017223000E-03 
1.41557071189000E-03 1.43976791762000E-03 1.46437874081000E-03 1.48941025168000E-03 
1.51486964129000E-03 1.54076422363000E-03 1.56710143772000E-03 1.59388884973000E-03 
1.62113415517000E-03 1.64884518107000E-03 1.67702988829000E-03 1.70569637375000E-03 
1.73485287276000E-03 1.76450776144000E-03 1.79466955905000E-03 1.82534693050000E-03 
1.85654868879000E-03 1.88828379760000E-03 1.92056137381000E-03 1.95339069013000E-03 
1.98678117780000E-03 2.02074242926000E-03 2.05528420091000E-03 2.09041641594000E-03 
2.12614916716000E-03 2.16249271989000E-03 2.19945751493000E-03 2.23705417156000E-03 
2.27529349056000E-03 2.31418645735000E-03 2.35374424513000E-03 2.39397821808000E-03 
2.43489993465000E-03 2.47652115085000E-03 2.51885382366000E-03 2.56191011443000E-03 
2.60570239240000E-03 2.65024323824000E-03 2.69554544769000E-03 2.74162203517000E-03 
2.78848623762000E-03 2.83615151820000E-03 2.88463157024000E-03 2.93394032110000E-03 
2.98409193624000E-03 3.03510082325000E-03 3.08698163600000E-03 3.13974927883000E-03 
3.19341891088000E-03 3.24800595038000E-03 3.30352607914000E-03 3.35999524702000E-03 
3.41742967651000E-03 3.47584586742000E-03 3.53526060158000E-03 3.59569094771000E-03 
3.65715426627000E-03 3.71966821447000E-03 3.78325075138000E-03 3.84792014302000E-03 
3.91369496765000E-03 3.98059412112000E-03 4.04863682225000E-03 4.11784261839000E-03 
4.18823139104000E-03 4.25982336152000E-03 4.33263909681000E-03 4.40669951548000E-03 
4.48202589365000E-03 4.55863987113000E-03 4.63656345762000E-03 4.71581903908000E-03 
4.79642938409000E-03 4.87841765045000E-03 4.96180739180000E-03 5.04662256440000E-03 
5.13288753400000E-03 5.22062708287000E-03 5.30986641687000E-03 5.40063117275000E-03 