<UPF version="2.0.1">
  <PP_INFO>
Generated using Vanderbilt code, version   7  3  6
Author: kfg    Generation date:   23    7 2013
Automatically converted from original format
1        The Pseudo was generated with a Scalar-Relativistic Calculation
2.50000000000E+00    Local Potential cutoff radius
nl pn  l   occ               Rcut            Rcut US             E pseu
5D  5  2 10.00      0.00000000000      2.20000000000     -0.72617350000
6S  6  0  2.00      0.00000000000      1.85000000000     -0.50465790500
6P  6  1  0.00      0.00000000000      2.20000000000     -0.07282107000
</PP_INFO>
  <PP_HEADER element="Hg" pseudo_type="US" relativistic="scalar" is_ultrasoft="T" is_paw="F" is_coulomb="F" has_so="F" has_wfc="F" has_gipaw="F" core_correction="T" functional="PBESOL" z_valence="12.0" total_psenergy="-107.482625622" wfc_cutoff="0.0" rho_cutoff="0.0" l_max="2" mesh_size="985" number_of_wfc="3" number_of_proj="6"/>
  <PP_MESH>
    <PP_R>
0.00000000000000E+00 1.91567369830000E-07 3.86354284168000E-07 5.84414851744000E-07 
7.85804090655000E-07 9.90577943651000E-07 1.19879329367000E-06 1.41050797966000E-06 
1.62578081261000E-06 1.84467159191000E-06 2.06724112197000E-06 2.29355122908000E-06 
2.52366477863000E-06 2.75764569251000E-06 2.99555896694000E-06 3.23747069046000E-06 
3.48344806233000E-06 3.73355941118000E-06 3.98787421399000E-06 4.24646311540000E-06 
4.50939794732000E-06 4.77675174889000E-06 5.04859878679000E-06 5.32501457581000E-06 
5.60607589992000E-06 5.89186083349000E-06 6.18244876308000E-06 6.47792040942000E-06 
6.77835784986000E-06 7.08384454119000E-06 7.39446534279000E-06 7.71030654020000E-06 
8.03145586912000E-06 8.35800253977000E-06 8.69003726165000E-06 9.02765226877000E-06 
9.37094134524000E-06 9.71999985135000E-06 1.00749247500000E-05 1.04358146338000E-05 
1.08027697522000E-05 1.11758920396000E-05 1.15552851434000E-05 1.19410544531000E-05 
1.23333071292000E-05 1.27321521334000E-05 1.31377002585000E-05 1.35500641594000E-05 
1.39693583843000E-05 1.43956994064000E-05 1.48292056566000E-05 1.52699975560000E-05 
1.57181975498000E-05 1.61739301407000E-05 1.66373219241000E-05 1.71085016230000E-05 
1.75876001235000E-05 1.80747505117000E-05 1.85700881103000E-05 1.90737505162000E-05 
1.95858776389000E-05 2.01066117392000E-05 2.06360974689000E-05 2.11744819107000E-05 
2.17219146193000E-05 2.22785476628000E-05 2.28445356652000E-05 2.34200358489000E-05 
2.40052080789000E-05 2.46002149067000E-05 2.52052216158000E-05 2.58203962676000E-05 
2.64459097478000E-05 2.70819358142000E-05 2.77286511448000E-05 2.83862353869000E-05 
2.90548712071000E-05 2.97347443418000E-05 3.04260436490000E-05 3.11289611607000E-05 
3.18436921364000E-05 3.25704351170000E-05 3.33093919802000E-05 3.40607679966000E-05 
3.48247718866000E-05 3.56016158784000E-05 3.63915157670000E-05 3.71946909740000E-05 
3.80113646090000E-05 3.88417635309000E-05 3.96861184114000E-05 4.05446637990000E-05 
4.14176381840000E-05 4.23052840650000E-05 4.32078480159000E-05 4.41255807547000E-05 
4.50587372132000E-05 4.60075766074000E-05 4.69723625100000E-05 4.79533629232000E-05 
4.89508503535000E-05 4.99651018870000E-05 5.09963992669000E-05 5.20450289714000E-05 
5.31112822931000E-05 5.41954554203000E-05 5.52978495194000E-05 5.64187708179000E-05 
5.75585306901000E-05 5.87174457432000E-05 5.98958379057000E-05 6.10940345161000E-05 
6.23123684146000E-05 6.35511780352000E-05 6.48108074995000E-05 6.60916067128000E-05 
6.73939314608000E-05 6.87181435088000E-05 7.00646107019000E-05 7.14337070676000E-05 
7.28258129191000E-05 7.42413149615000E-05 7.56806063989000E-05 7.71440870437000E-05 
7.86321634278000E-05 8.01452489151000E-05 8.16837638171000E-05 8.32481355089000E-05 
8.48387985481000E-05 8.64561947959000E-05 8.81007735394000E-05 8.97729916166000E-05 
9.14733135433000E-05 9.32022116421000E-05 9.49601661735000E-05 9.67476654696000E-05 
9.85652060694000E-05 1.00413292857000E-04 1.02292439202000E-04 1.04203167101000E-04 
1.06146007324000E-04 1.08121499562000E-04 1.10130192576000E-04 1.12172644347000E-04 
1.14249422238000E-04 1.16361103145000E-04 1.18508273658000E-04 1.20691530229000E-04 
1.22911479330000E-04 1.25168737630000E-04 1.27463932159000E-04 1.29797700485000E-04 
1.32170690892000E-04 1.34583562561000E-04 1.37036985747000E-04 1.39531641975000E-04 
1.42068224219000E-04 1.44647437102000E-04 1.47269997090000E-04 1.49936632687000E-04 
1.52648084642000E-04 1.55405106155000E-04 1.58208463083000E-04 1.61058934153000E-04 
1.63957311182000E-04 1.66904399293000E-04 1.69901017140000E-04 1.72947997137000E-04 
1.76046185687000E-04 1.79196443416000E-04 1.82399645418000E-04 1.85656681491000E-04 
1.88968456389000E-04 1.92335890069000E-04 1.95759917953000E-04 1.99241491180000E-04 
2.02781576877000E-04 2.06381158424000E-04 2.10041235728000E-04 2.13762825500000E-04 
2.17546961540000E-04 2.21394695020000E-04 2.25307094780000E-04 2.29285247623000E-04 
2.33330258617000E-04 2.37443251402000E-04 2.41625368503000E-04 2.45877771646000E-04 
2.50201642080000E-04 2.54598180910000E-04 2.59068609424000E-04 2.63614169437000E-04 
2.68236123633000E-04 2.72935755918000E-04 2.77714371776000E-04 2.82573298631000E-04 
2.87513886216000E-04 2.92537506948000E-04 2.97645556310000E-04 3.02839453237000E-04 
3.08120640512000E-04 3.13490585165000E-04 3.18950778882000E-04 3.24502738419000E-04 
3.30148006022000E-04 3.35888149857000E-04 3.41724764446000E-04 3.47659471109000E-04 
3.53693918412000E-04 3.59829782630000E-04 3.66068768210000E-04 3.72412608242000E-04 
3.78863064946000E-04 3.85421930156000E-04 3.92091025823000E-04 3.98872204514000E-04 
4.05767349935000E-04 4.12778377447000E-04 4.19907234605000E-04 4.27155901691000E-04 
4.34526392271000E-04 4.42020753751000E-04 4.49641067946000E-04 4.57389451659000E-04 
4.65268057269000E-04 4.73279073327000E-04 4.81424725168000E-04 4.89707275525000E-04 
4.98129025160000E-04 5.06692313502000E-04 5.15399519297000E-04 5.24253061269000E-04 
5.33255398792000E-04 5.42409032574000E-04 5.51716505350000E-04 5.61180402588000E-04 
5.70803353210000E-04 5.80588030320000E-04 5.90537151946000E-04 6.00653481796000E-04 
6.10939830029000E-04 6.21399054028000E-04 6.32034059202000E-04 6.42847799786000E-04 
6.53843279667000E-04 6.65023553216000E-04 6.76391726136000E-04 6.87950956325000E-04 
6.99704454757000E-04 7.11655486366000E-04 7.23807370961000E-04 7.36163484143000E-04 
7.48727258246000E-04 7.61502183287000E-04 7.74491807939000E-04 7.87699740514000E-04 
8.01129649969000E-04 8.14785266918000E-04 8.28670384677000E-04 8.42788860313000E-04 
8.57144615716000E-04 8.71741638686000E-04 8.86583984047000E-04 9.01675774768000E-04 
9.17021203110000E-04 9.32624531790000E-04 9.48490095168000E-04 9.64622300445000E-04 
9.81025628894000E-04 9.97704637100000E-04 1.01466395823000E-03 1.03190830331000E-03 
1.04944246256000E-03 1.06727130667000E-03 1.08539978823000E-03 1.10383294305000E-03 
1.12257589155000E-03 1.14163384024000E-03 1.16101208310000E-03 1.18071600312000E-03 
1.20075107374000E-03 1.22112286036000E-03 1.24183702197000E-03 1.26289931261000E-03 
1.28431558307000E-03 1.30609178245000E-03 1.32823395983000E-03 1.35074826596000E-03 
1.37364095496000E-03 1.39691838605000E-03 1.42058702534000E-03 1.44465344760000E-03 
1.46912433810000E-03 1.49400649448000E-03 1.51930682859000E-03 1.54503236848000E-03 
1.57119026029000E-03 1.59778777028000E-03 1.62483228680000E-03 1.65233132241000E-03 
1.68029251589000E-03 1.70872363443000E-03 1.73763257573000E-03 1.76702737026000E-03 
1.79691618342000E-03 1.82730731784000E-03 1.85820921571000E-03 1.88963046109000E-03 
1.92157978230000E-03 1.95406605435000E-03 1.98709830143000E-03 2.02068569936000E-03 
2.05483757820000E-03 2.08956342480000E-03 2.12487288545000E-03 2.16077576856000E-03 
2.19728204739000E-03 2.23440186280000E-03 2.27214552609000E-03 2.31052352186000E-03 
2.34954651090000E-03 2.38922533319000E-03 2.42957101088000E-03 2.47059475135000E-03 
2.51230795036000E-03 2.55472219518000E-03 2.59784926781000E-03 2.64170114826000E-03 
2.68629001791000E-03 2.73162826284000E-03 2.77772847729000E-03 2.82460346717000E-03 
2.87226625362000E-03 2.92073007660000E-03 2.97000839861000E-03 3.02011490838000E-03 
3.07106352470000E-03 3.12286840030000E-03 3.17554392576000E-03 3.22910473350000E-03 
3.28356570188000E-03 3.33894195928000E-03 3.39524888836000E-03 3.45250213029000E-03 
3.51071758912000E-03 3.56991143618000E-03 3.63010011460000E-03 3.69130034383000E-03 
3.75352912433000E-03 3.81680374228000E-03 3.88114177436000E-03 3.94656109267000E-03 
4.01307986965000E-03 4.08071658318000E-03 4.14949002166000E-03 4.21941928926000E-03 
4.29052381125000E-03 4.36282333932000E-03 4.43633795715000E-03 4.51108808593000E-03 
4.58709449007000E-03 4.66437828296000E-03 4.74296093280000E-03 4.82286426861000E-03 
4.90411048629000E-03 4.98672215474000E-03 5.07072222219000E-03 5.15613402252000E-03 
5.24298128179000E-03 5.33128812479000E-03 5.42107908177000E-03 5.51237909524000E-03 
5.60521352690000E-03 5.69960816468000E-03 5.79558922994000E-03 5.89318338469000E-03 
5.99241773905000E-03 6.09331985876000E-03 6.19591777282000E-03 6.30023998133000E-03 
6.40631546334000E-03 6.51417368494000E-03 6.62384460746000E-03 6.73535869573000E-03 
6.84874692661000E-03 6.96404079756000E-03 7.08127233539000E-03 7.20047410519000E-03 
7.32167921931000E-03 7.44492134662000E-03 7.57023472184000E-03 7.69765415505000E-03 
7.82721504134000E-03 7.95895337070000E-03 8.09290573795000E-03 8.22910935294000E-03 
8.36760205088000E-03 8.50842230285000E-03 8.65160922651000E-03 8.79720259691000E-03 
8.94524285760000E-03 9.09577113182000E-03 9.24882923395000E-03 9.40445968111000E-03 
9.56270570499000E-03 9.72361126382000E-03 9.88722105464000E-03 1.00535805257000E-02 
1.02227358889000E-02 1.03947341331000E-02 1.05696230366000E-02 1.07474511807000E-02 
1.09282679635000E-02 1.11121236128000E-02 1.12990692009000E-02 1.14891566583000E-02 
1.16824387883000E-02 1.18789692817000E-02 1.20788027315000E-02 1.22819946482000E-02 
1.24886014754000E-02 1.26986806053000E-02 1.29122903944000E-02 1.31294901801000E-02 
1.33503402973000E-02 1.35749020944000E-02 1.38032379514000E-02 1.40354112962000E-02 
1.42714866229000E-02 1.45115295095000E-02 1.47556066363000E-02 1.50037858038000E-02 
1.52561359524000E-02 1.55127271810000E-02 1.57736307666000E-02 1.60389191840000E-02 
1.63086661262000E-02 1.65829465247000E-02 1.68618365701000E-02 1.71454137338000E-02 
1.74337567890000E-02 1.77269458328000E-02 1.80250623086000E-02 1.83281890284000E-02 
1.86364101959000E-02 1.89498114303000E-02 1.92684797893000E-02 1.95925037941000E-02 
1.99219734533000E-02 2.02569802885000E-02 2.05976173592000E-02 2.09439792891000E-02 
2.12961622920000E-02 2.16542641988000E-02 2.20183844845000E-02 2.23886242961000E-02 
2.27650864803000E-02 2.31478756123000E-02 2.35370980250000E-02 2.39328618381000E-02 
2.43352769886000E-02 2.47444552611000E-02 2.51605103188000E-02 2.55835577353000E-02 
2.60137150264000E-02 2.64511016831000E-02 2.68958392044000E-02 2.73480511315000E-02 
2.78078630816000E-02 2.82754027832000E-02 2.87508001116000E-02 2.92341871245000E-02 
2.97256980993000E-02 3.02254695699000E-02 3.07336403649000E-02 3.12503516462000E-02 
3.17757469480000E-02 3.23099722169000E-02 3.28531758521000E-02 3.34055087471000E-02 
3.39671243312000E-02 3.45381786123000E-02 3.51188302204000E-02 3.57092404512000E-02 
3.63095733115000E-02 3.69199955641000E-02 3.75406767748000E-02 3.81717893589000E-02 
3.88135086297000E-02 3.94660128466000E-02 4.01294832649000E-02 4.08041041862000E-02 
4.14900630096000E-02 4.21875502837000E-02 4.28967597593000E-02 4.36178884437000E-02 
4.43511366550000E-02 4.50967080780000E-02 4.58548098207000E-02 4.66256524717000E-02 
4.74094501590000E-02 4.82064206091000E-02 4.90167852080000E-02 4.98407690621000E-02 
5.06786010610000E-02 5.15305139413000E-02 5.23967443509000E-02 5.32775329150000E-02 
5.41731243027000E-02 5.50837672952000E-02 5.60097148547000E-02 5.69512241947000E-02 
5.79085568518000E-02 5.88819787578000E-02 5.98717603140000E-02 6.08781764660000E-02 
6.19015067804000E-02 6.29420355221000E-02 6.40000517336000E-02 6.50758493152000E-02 
6.61697271063000E-02 6.72819889690000E-02 6.84129438720000E-02 6.95629059768000E-02 
7.07321947246000E-02 7.19211349255000E-02 7.31300568482000E-02 7.43592963121000E-02 
7.56091947806000E-02 7.68800994557000E-02 7.81723633746000E-02 7.94863455080000E-02 
8.08224108591000E-02 8.21809305660000E-02 8.35622820039000E-02 8.49668488905000E-02 
8.63950213922000E-02 8.78471962328000E-02 8.93237768036000E-02 9.08251732752000E-02 
9.23518027121000E-02 9.39040891876000E-02 9.54824639025000E-02 9.70873653043000E-02 
9.87192392093000E-02 1.00378538926000E-01 1.02065725383000E-01 1.03781267252000E-01 
1.05525641084000E-01 1.07299331440000E-01 1.09102831022000E-01 1.10936640814000E-01 
1.12801270218000E-01 1.14697237201000E-01 1.16625068431000E-01 1.18585299430000E-01 
1.20578474718000E-01 1.22605147969000E-01 1.24665882161000E-01 1.26761249731000E-01 
1.28891832742000E-01 1.31058223035000E-01 1.33261022398000E-01 1.35500842735000E-01 
1.37778306233000E-01 1.40094045535000E-01 1.42448703917000E-01 1.44842935466000E-01 
1.47277405261000E-01 1.49752789559000E-01 1.52269775984000E-01 1.54829063715000E-01 
1.57431363680000E-01 1.60077398759000E-01 1.62767903977000E-01 1.65503626715000E-01 
1.68285326913000E-01 1.71113777284000E-01 1.73989763526000E-01 1.76914084543000E-01 
1.79887552665000E-01 1.82910993875000E-01 1.85985248036000E-01 1.89111169129000E-01 
1.92289625485000E-01 1.95521500028000E-01 1.98807690522000E-01 2.02149109820000E-01 
2.05546686114000E-01 2.09001363198000E-01 2.12514100727000E-01 2.16085874483000E-01 
2.19717676648000E-01 2.23410516081000E-01 2.27165418593000E-01 2.30983427238000E-01 
2.34865602597000E-01 2.38813023078000E-01 2.42826785212000E-01 2.46908003958000E-01 
2.51057813015000E-01 2.55277365134000E-01 2.59567832440000E-01 2.63930406757000E-01 
2.68366299939000E-01 2.72876744208000E-01 2.77462992493000E-01 2.82126318783000E-01 
2.86868018474000E-01 2.91689408737000E-01 2.96591828878000E-01 3.01576640711000E-01 
3.06645228939000E-01 3.11799001536000E-01 3.17039390137000E-01 3.22367850440000E-01 
3.27785862608000E-01 3.33294931678000E-01 3.38896587984000E-01 3.44592387575000E-01 
3.50383912657000E-01 3.56272772023000E-01 3.62260601504000E-01 3.68349064426000E-01 
3.74539852068000E-01 3.80834684132000E-01 3.87235309223000E-01 3.93743505335000E-01 
4.00361080340000E-01 4.07089872498000E-01 4.13931750959000E-01 4.20888616290000E-01 
4.27962400999000E-01 4.35155070070000E-01 4.42468621515000E-01 4.49905086921000E-01 
4.57466532021000E-01 4.65155057267000E-01 4.72972798407000E-01 4.80921927088000E-01 
4.89004651452000E-01 4.97223216752000E-01 5.05579905976000E-01 5.14077040480000E-01 
5.22716980634000E-01 5.31502126476000E-01 5.40434918382000E-01 5.49517837740000E-01 
5.58753407642000E-01 5.68144193582000E-01 5.77692804174000E-01 5.87401891870000E-01 
5.97274153702000E-01 6.07312332027000E-01 6.17519215295000E-01 6.27897638814000E-01 
6.38450485548000E-01 6.49180686911000E-01 6.60091223583000E-01 6.71185126339000E-01 
6.82465476890000E-01 6.93935408739000E-01 7.05598108052000E-01 7.17456814544000E-01 
7.29514822374000E-01 7.41775481068000E-01 7.54242196442000E-01 7.66918431554000E-01 
7.79807707662000E-01 7.92913605202000E-01 8.06239764786000E-01 8.19789888211000E-01 
8.33567739487000E-01 8.47577145884000E-01 8.61821998992000E-01 8.76306255809000E-01 
8.91033939831000E-01 9.06009142177000E-01 9.21236022720000E-01 9.36718811249000E-01 
9.52461808638000E-01 9.68469388041000E-01 9.84745996113000E-01 1.00129615424000E+00 
1.01812445979000E+00 1.03523558740000E+00 1.05263429028000E+00 1.07032540150000E+00 
1.08831383539000E+00 1.10660458884000E+00 1.12520274273000E+00 1.14411346335000E+00 
1.16334200378000E+00 1.18289370541000E+00 1.20277399940000E+00 1.22298840819000E+00 
1.24354254700000E+00 1.26444212546000E+00 1.28569294914000E+00 1.30730092119000E+00 
1.32927204395000E+00 1.35161242066000E+00 1.37432825713000E+00 1.39742586344000E+00 
1.42091165576000E+00 1.44479215807000E+00 1.46907400398000E+00 1.49376393862000E+00 
1.51886882046000E+00 1.54439562324000E+00 1.57035143790000E+00 1.59674347455000E+00 
1.62357906449000E+00 1.65086566223000E+00 1.67861084754000E+00 1.70682232760000E+00 
1.73550793911000E+00 1.76467565049000E+00 1.79433356407000E+00 1.82448991834000E+00 
1.85515309026000E+00 1.88633159758000E+00 1.91803410119000E+00 1.95026940756000E+00 
1.98304647113000E+00 2.01637439686000E+00 2.05026244272000E+00 2.08472002228000E+00 
2.11975670731000E+00 2.15538223044000E+00 2.19160648788000E+00 2.22843954216000E+00 
2.26589162491000E+00 2.30397313975000E+00 2.34269466511000E+00 2.38206695721000E+00 
2.42210095306000E+00 2.46280777347000E+00 2.50419872616000E+00 2.54628530887000E+00 
2.58907921260000E+00 2.63259232481000E+00 2.67683673276000E+00 2.72182472685000E+00 
2.76756880403000E+00 2.81408167128000E+00 2.86137624915000E+00 2.90946567532000E+00 
2.95836330828000E+00 3.00808273100000E+00 3.05863775478000E+00 3.11004242298000E+00 
3.16231101503000E+00 3.21545805030000E+00 3.26949829220000E+00 3.32444675226000E+00 
3.38031869430000E+00 3.43712963866000E+00 3.49489536651000E+00 3.55363192427000E+00 
3.61335562803000E+00 3.67408306809000E+00 3.73583111356000E+00 3.79861691709000E+00 
3.86245791958000E+00 3.92737185505000E+00 3.99337675556000E+00 4.06049095624000E+00 
4.12873310035000E+00 4.19812214447000E+00 4.26867736380000E+00 4.34041835746000E+00 
4.41336505396000E+00 4.48753771674000E+00 4.56295694979000E+00 4.63964370340000E+00 
4.71761927992000E+00 4.79690533974000E+00 4.87752390728000E+00 4.95949737710000E+00 
5.04284852013000E+00 5.12760049002000E+00 5.21377682951000E+00 5.30140147703000E+00 
5.39049877334000E+00 5.48109346823000E+00 5.57321072751000E+00 5.66687613987000E+00 
5.76211572411000E+00 5.85895593626000E+00 5.95742367701000E+00 6.05754629914000E+00 
6.15935161514000E+00 6.26286790492000E+00 6.36812392366000E+00 6.47514890983000E+00 
6.58397259328000E+00 6.69462520350000E+00 6.80713747805000E+00 6.92154067106000E+00 
7.03786656192000E+00 7.15614746415000E+00 7.27641623429000E+00 7.39870628112000E+00 
7.52305157488000E+00 7.64948665672000E+00 7.77804664833000E+00 7.90876726163000E+00 
8.04168480874000E+00 8.17683621207000E+00 8.31425901453000E+00 8.45399139001000E+00 
8.59607215396000E+00 8.74054077417000E+00 8.88743738175000E+00 9.03680278224000E+00 
9.18867846700000E+00 9.34310662470000E+00 9.50013015303000E+00 9.65979267066000E+00 
9.82213852932000E+00 9.98721282611000E+00 1.01550614161000E+01 1.03257309249000E+01 
1.04992687619000E+01 1.06757231331000E+01 1.08551430547000E+01 1.10375783668000E+01 
1.12230797471000E+01 1.14116987249000E+01 1.16034876955000E+01 1.17984999349000E+01 
1.19967896144000E+01 1.21984118158000E+01 1.24034225465000E+01 1.26118787553000E+01 
1.28238383481000E+01 1.30393602037000E+01 1.32585041909000E+01 1.34813311843000E+01 
1.37079030818000E+01 1.39382828215000E+01 1.41725343992000E+01 1.44107228863000E+01 
1.46529144478000E+01 1.48991763607000E+01 1.51495770326000E+01 1.54041860210000E+01 
1.56630740522000E+01 1.59263130411000E+01 1.61939761115000E+01 1.64661376159000E+01 
1.67428731564000E+01 1.70242596059000E+01 1.73103751289000E+01 1.76012992040000E+01 
1.78971126453000E+01 1.81978976249000E+01 1.85037376963000E+01 1.88147178170000E+01 
1.91309243723000E+01 1.94524451994000E+01 1.97793696118000E+01 2.01117884239000E+01 
2.04497939764000E+01 2.07934801619000E+01 2.11429424509000E+01 2.14982779187000E+01 
2.18595852717000E+01 2.22269648754000E+01 2.26005187822000E+01 2.29803507593000E+01 
2.33665663181000E+01 2.37592727432000E+01 2.41585791222000E+01 2.45645963762000E+01 
2.49774372903000E+01 2.53972165451000E+01 2.58240507489000E+01 2.62580584692000E+01 
2.66993602667000E+01 2.71480787280000E+01 2.76043385001000E+01 2.80682663246000E+01 
2.85399910733000E+01 2.90196437841000E+01 2.95073576968000E+01 3.00032682907000E+01 
3.05075133218000E+01 3.10202328615000E+01 3.15415693352000E+01 3.20716675619000E+01 
3.26106747946000E+01 3.31587407608000E+01 3.37160177048000E+01 3.42826604293000E+01 
3.48588263385000E+01 3.54446754824000E+01 3.60403706006000E+01 3.66460771677000E+01 
3.72619634395000E+01 3.78882004995000E+01 3.85249623064000E+01 3.91724257426000E+01 
3.98307706632000E+01 4.05001799461000E+01 4.11808395425000E+01 4.18729385290000E+01 
4.25766691598000E+01 4.32922269200000E+01 4.40198105803000E+01 4.47596222520000E+01 
4.55118674431000E+01 4.62767551154000E+01 4.70544977427000E+01 4.78453113695000E+01 
4.86494156714000E+01 4.94670340158000E+01 5.02983935243000E+01 5.11437251353000E+01 
5.20032636687000E+01 5.28772478906000E+01 5.37659205801000E+01 5.46695285965000E+01 
5.55883229477000E+01 5.65225588604000E+01 5.74724958504000E+01 5.84383977954000E+01 
5.94205330075000E+01 6.04191743086000E+01 6.14345991052000E+01 6.24670894665000E+01 
6.35169322019000E+01 6.45844189412000E+01 6.56698462153000E+01 6.67735155387000E+01 
6.78957334935000E+01 6.90368118140000E+01 7.01970674737000E+01 7.13768227734000E+01 
7.25764054304000E+01 7.37961486699000E+01 7.50363913172000E+01 7.62974778923000E+01 
7.75797587049000E+01 7.88835899526000E+01 8.02093338190000E+01 8.15573585747000E+01 
8.29280386799000E+01 8.43217548879000E+01 8.57388943508000E+01 8.71798507278000E+01 
8.86450242937000E+01 9.01348220507000E+01 9.16496578409000E+01 9.31899524620000E+01 
9.47561337833000E+01 9.63486368653000E+01 9.79679040803000E+01 9.96143852351000E+01 
1.01288537696000E+02 1.02990826517000E+02 1.04721724565000E+02 1.06481712659000E+02 
1.08271279693000E+02 1.10090922783000E+02 1.11941147395000E+02 1.13822467494000E+02 
1.15735405679000E+02 1.17680493336000E+02 1.19658270779000E+02 1.21669287402000E+02 
1.23714101836000E+02 1.25793282096000E+02 1.27907405747000E+02 1.30057060058000E+02 
1.32242842170000E+02 1.34465359259000E+02 1.36725228704000E+02 1.39023078261000E+02 
1.41359546237000E+02 1.43735281666000E+02 1.46150944489000E+02 1.48607205740000E+02 
1.51104747729000E+02 
</PP_R>
    <PP_RAB>
1.89975409491000E-07 1.93168198988000E-07 1.96414647560000E-07 1.99715657020000E-07 
2.03072144335000E-07 2.06485041885000E-07 2.09955297718000E-07 2.13483875818000E-07 
2.17071756367000E-07 2.20719936022000E-07 2.24429428190000E-07 2.28201263309000E-07 
2.32036489134000E-07 2.35936171032000E-07 2.39901392273000E-07 2.43933254331000E-07 
2.48032877196000E-07 2.52201399677000E-07 2.56439979724000E-07 2.60749794747000E-07 
2.65132041946000E-07 2.69587938639000E-07 2.74118722604000E-07 2.78725652421000E-07 
2.83410007822000E-07 2.88173090049000E-07 2.93016222209000E-07 2.97940749647000E-07 
3.02948040322000E-07 3.08039485177000E-07 3.13216498537000E-07 3.18480518494000E-07 
3.23833007309000E-07 3.29275451820000E-07 3.34809363851000E-07 3.40436280637000E-07 
3.46157765245000E-07 3.51975407013000E-07 3.57890821991000E-07 3.63905653388000E-07 
3.70021572028000E-07 3.76240276818000E-07 3.82563495214000E-07 3.88992983709000E-07 
3.95530528311000E-07 4.02177945047000E-07 4.08937080466000E-07 4.15809812147000E-07 
4.22798049228000E-07 4.29903732930000E-07 4.37128837100000E-07 4.44475368758000E-07 
4.51945368654000E-07 4.59540911836000E-07 4.67264108226000E-07 4.75117103207000E-07 
4.83102078215000E-07 4.91221251352000E-07 4.99476877995000E-07 5.07871251427000E-07 
5.16406703472000E-07 5.25085605144000E-07 5.33910367306000E-07 5.42883441335000E-07 
5.52007319811000E-07 5.61284537204000E-07 5.70717670577000E-07 5.80309340306000E-07 
5.90062210805000E-07 5.99978991268000E-07 6.10062436420000E-07 6.20315347283000E-07 
6.30740571953000E-07 6.41341006394000E-07 6.52119595237000E-07 6.63079332606000E-07 
6.74223262942000E-07 6.85554481853000E-07 6.97076136973000E-07 7.08791428836000E-07 
7.20703611763000E-07 7.32815994773000E-07 7.45131942494000E-07 7.57654876101000E-07 
7.70388274267000E-07 7.83335674130000E-07 7.96500672273000E-07 8.09886925724000E-07 
8.23498152973000E-07 8.37338135005000E-07 8.51410716347000E-07 8.65719806140000E-07 
8.80269379224000E-07 8.95063477240000E-07 9.10106209755000E-07 9.25401755403000E-07 
9.40954363044000E-07 9.56768352948000E-07 9.72848117991000E-07 9.89198124877000E-07 
1.00582291538000E-06 1.02272710761000E-06 1.03991539727000E-06 1.05739255901000E-06 
1.07516344771000E-06 1.09323299983000E-06 1.11160623481000E-06 1.13028825646000E-06 
1.14928425433000E-06 1.16859950521000E-06 1.18823937458000E-06 1.20820931809000E-06 
1.22851488307000E-06 1.24916171008000E-06 1.27015553448000E-06 1.29150218804000E-06 
1.31320760050000E-06 1.33527780130000E-06 1.35771892119000E-06 1.38053719395000E-06 
1.40373895814000E-06 1.42733065885000E-06 1.45131884947000E-06 1.47571019355000E-06 
1.50051146662000E-06 1.52572955808000E-06 1.55137147311000E-06 1.57744433464000E-06 
1.60395538529000E-06 1.63091198942000E-06 1.65832163515000E-06 1.68619193643000E-06 
1.71453063521000E-06 1.74334560353000E-06 1.77264484572000E-06 1.80243650065000E-06 
1.83272884398000E-06 1.86353029044000E-06 1.89484939619000E-06 1.92669486117000E-06 
1.95907553156000E-06 1.99200040220000E-06 2.02547861909000E-06 2.05951948195000E-06 
2.09413244680000E-06 2.12932712857000E-06 2.16511330380000E-06 2.20150091330000E-06 
2.23850006500000E-06 2.27612103666000E-06 2.31437427880000E-06 2.35327041757000E-06 
2.39282025769000E-06 2.43303478550000E-06 2.47392517195000E-06 2.51550277574000E-06 
2.55777914647000E-06 2.60076602786000E-06 2.64447536098000E-06 2.68891928760000E-06 
2.73411015353000E-06 2.78006051208000E-06 2.82678312754000E-06 2.87429097871000E-06 
2.92259726253000E-06 2.97171539771000E-06 3.02165902850000E-06 3.07244202844000E-06 
3.12407850427000E-06 3.17658279976000E-06 3.22996949979000E-06 3.28425343434000E-06 
3.33944968263000E-06 3.39557357731000E-06 3.45264070870000E-06 3.51066692916000E-06 
3.56966835744000E-06 3.62966138323000E-06 3.69066267162000E-06 3.75268916783000E-06 
3.81575810182000E-06 3.87988699315000E-06 3.94509365582000E-06 4.01139620321000E-06 
4.07881305311000E-06 4.14736293286000E-06 4.21706488454000E-06 4.28793827025000E-06 
4.36000277750000E-06 4.43327842466000E-06 4.50778556656000E-06 4.58354490010000E-06 
4.66057747003000E-06 4.73890467479000E-06 4.81854827242000E-06 4.89953038667000E-06 
4.98187351308000E-06 5.06560052529000E-06 5.15073468132000E-06 5.23729963011000E-06 
5.32531941802000E-06 5.41481849557000E-06 5.50582172419000E-06 5.59835438314000E-06 
5.69244217652000E-06 5.78811124044000E-06 5.88538815026000E-06 5.98429992797000E-06 
6.08487404969000E-06 6.18713845332000E-06 6.29112154632000E-06 6.39685221352000E-06 
6.50435982526000E-06 6.61367424543000E-06 6.72482583987000E-06 6.83784548472000E-06 
6.95276457507000E-06 7.06961503361000E-06 7.18842931957000E-06 7.30924043768000E-06 
7.43208194734000E-06 7.55698797201000E-06 7.68399320859000E-06 7.81313293714000E-06 
7.94444303063000E-06 8.07795996494000E-06 8.21372082896000E-06 8.35176333491000E-06 
8.49212582883000E-06 8.63484730119000E-06 8.77996739777000E-06 8.92752643063000E-06 
9.07756538936000E-06 9.23012595240000E-06 9.38525049866000E-06 9.54298211930000E-06 
9.70336462966000E-06 9.86644258149000E-06 1.00322612752000E-05 1.02008667728000E-05 
1.03723059100000E-05 1.05466263100000E-05 1.07238763962000E-05 1.09041054059000E-05 
1.10873634039000E-05 1.12737012964000E-05 1.14631708451000E-05 1.16558246816000E-05 
1.18517163221000E-05 1.20509001823000E-05 1.22534315922000E-05 1.24593668119000E-05 
1.26687630469000E-05 1.28816784643000E-05 1.30981722085000E-05 1.33183044181000E-05 
1.35421362423000E-05 1.37697298581000E-05 1.40011484874000E-05 1.42364564147000E-05 
1.44757190048000E-05 1.47190027209000E-05 1.49663751436000E-05 1.52179049890000E-05 
1.54736621280000E-05 1.57337176060000E-05 1.59981436623000E-05 1.62670137502000E-05 
1.65404025577000E-05 1.68183860278000E-05 1.71010413800000E-05 1.73884471314000E-05 
1.76806831188000E-05 1.79778305207000E-05 1.82799718801000E-05 1.85871911269000E-05 
1.88995736020000E-05 1.92172060801000E-05 1.95401767946000E-05 1.98685754616000E-05 
2.02024933051000E-05 2.05420230822000E-05 2.08872591089000E-05 2.12382972864000E-05 
2.15952351274000E-05 2.19581717837000E-05 2.23272080734000E-05 2.27024465089000E-05 
2.30839913255000E-05 2.34719485103000E-05 2.38664258318000E-05 2.42675328695000E-05 
2.46753810445000E-05 2.50900836508000E-05 2.55117558860000E-05 2.59405148842000E-05 
2.63764797477000E-05 2.68197715808000E-05 2.72705135229000E-05 2.77288307829000E-05 
2.81948506743000E-05 2.86687026499000E-05 2.91505183384000E-05 2.96404315805000E-05 
3.01385784665000E-05 3.06450973735000E-05 3.11601290047000E-05 3.16838164276000E-05 
3.22163051144000E-05 3.27577429820000E-05 3.33082804333000E-05 3.38680703988000E-05 
3.44372683795000E-05 3.50160324895000E-05 3.56045235003000E-05 3.62029048855000E-05 
3.68113428660000E-05 3.74300064561000E-05 3.80590675110000E-05 3.86987007738000E-05 
3.93490839245000E-05 4.00103976293000E-05 4.06828255908000E-05 4.13665545987000E-05 
4.20617745822000E-05 4.27686786625000E-05 4.34874632063000E-05 4.42183278806000E-05 
4.49614757081000E-05 4.57171131235000E-05 4.64854500309000E-05 4.72666998623000E-05 
4.80610796365000E-05 4.88688100195000E-05 4.96901153863000E-05 5.05252238824000E-05 
5.13743674878000E-05 5.22377820812000E-05 5.31157075055000E-05 5.40083876346000E-05 
5.49160704408000E-05 5.58390080641000E-05 5.67774568821000E-05 5.77316775809000E-05 
5.87019352281000E-05 5.96884993459000E-05 6.06916439861000E-05 6.17116478067000E-05 
6.27487941484000E-05 6.38033711142000E-05 6.48756716489000E-05 6.59659936206000E-05 
6.70746399037000E-05 6.82019184624000E-05 6.93481424371000E-05 7.05136302306000E-05 
7.16987055970000E-05 7.29036977315000E-05 7.41289413619000E-05 7.53747768417000E-05 
7.66415502441000E-05 7.79296134588000E-05 7.92393242894000E-05 8.05710465530000E-05 
8.19251501810000E-05 8.33020113218000E-05 8.47020124460000E-05 8.61255424515000E-05 
8.75729967726000E-05 8.90447774893000E-05 9.05412934390000E-05 9.20629603301000E-05 
9.36102008578000E-05 9.51834448209000E-05 9.67831292419000E-05 9.84096984877000E-05 
1.00063604394000E-04 1.01745306389000E-04 1.03455271623000E-04 1.05193975098000E-04 