<UPF version="2.0.1">
  <PP_INFO>
Generated using Vanderbilt code, version   7  3  6
Author: kfg    Generation date:   23    7 2013
Automatically converted from original format
1        The Pseudo was generated with a Scalar-Relativistic Calculation
2.15000000000E+00    Local Potential cutoff radius
nl pn  l   occ               Rcut            Rcut US             E pseu
5S  5  0  2.00      0.00000000000      1.90000000000     -1.28243919000
5P  5  1  5.00      0.00000000000      2.00000000000     -0.52167460000
</PP_INFO>
  <PP_HEADER element="I" pseudo_type="US" relativistic="scalar" is_ultrasoft="T" is_paw="F" is_coulomb="F" has_so="F" has_wfc="F" has_gipaw="F" core_correction="T" functional="PBESOL" z_valence="7.0" total_psenergy="-65.0006229613" wfc_cutoff="0.0" rho_cutoff="0.0" l_max="2" mesh_size="893" number_of_wfc="2" number_of_proj="6"/>
  <PP_MESH>
    <PP_R>
0.00000000000000E+00 1.07963228986000E-09 2.18659560126000E-09 3.32158182231000E-09 
4.48530035633000E-09 5.67847856530000E-09 6.90186222444000E-09 8.15621598835000E-09 
9.44232386898000E-09 1.07609897256000E-08 1.21130377673000E-08 1.34993130682000E-08 
1.49206820954000E-08 1.63780332508000E-08 1.78722774264000E-08 1.94043485733000E-08 
2.09752042860000E-08 2.25858264004000E-08 2.42372216077000E-08 2.59304220838000E-08 
2.76664861339000E-08 2.94464988547000E-08 3.12715728121000E-08 3.31428487367000E-08 
3.50614962369000E-08 3.70287145297000E-08 3.90457331908000E-08 4.11138129223000E-08 
4.32342463416000E-08 4.54083587883000E-08 4.76375091537000E-08 4.99230907293000E-08 
5.22665320779000E-08 5.46692979267000E-08 5.71328900826000E-08 5.96588483708000E-08 
6.22487515975000E-08 6.49042185366000E-08 6.76269089412000E-08 7.04185245816000E-08 
7.32808103084000E-08 7.62155551434000E-08 7.92245933975000E-08 8.23098058178000E-08 
8.54731207622000E-08 8.87165154058000E-08 9.20420169757000E-08 9.54517040186000E-08 
9.89477076999000E-08 1.02532213136000E-07 1.06207460759000E-07 1.09975747718000E-07 
1.13839429317000E-07 1.17800920480000E-07 1.21862697270000E-07 1.26027298428000E-07 
1.30297326967000E-07 1.34675451793000E-07 1.39164409377000E-07 1.43767005463000E-07 
1.48486116824000E-07 1.53324693057000E-07 1.58285758431000E-07 1.63372413773000E-07 
1.68587838408000E-07 1.73935292146000E-07 1.79418117320000E-07 1.85039740874000E-07 
1.90803676506000E-07 1.96713526863000E-07 2.02772985794000E-07 2.08985840658000E-07 
2.15355974692000E-07 2.21887369437000E-07 2.28584107227000E-07 2.35450373742000E-07 
2.42490460620000E-07 2.49708768147000E-07 2.57109807998000E-07 2.64698206066000E-07 
2.72478705345000E-07 2.80456168901000E-07 2.88635582908000E-07 2.97022059767000E-07 
3.05620841298000E-07 3.14437302020000E-07 3.23476952508000E-07 3.32745442838000E-07 
3.42248566117000E-07 3.51992262107000E-07 3.61982620936000E-07 3.72225886903000E-07 
3.82728462382000E-07 3.93496911825000E-07 4.04537965864000E-07 4.15858525516000E-07 
4.27465666500000E-07 4.39366643658000E-07 4.51568895486000E-07 4.64080048790000E-07 
4.76907923448000E-07 4.90060537299000E-07 5.03546111155000E-07 5.17373073939000E-07 
5.31550067951000E-07 5.46085954276000E-07 5.60989818315000E-07 5.76270975469000E-07 
5.91938976957000E-07 6.08003615792000E-07 6.24474932895000E-07 6.41363223375000E-07 
6.58679042965000E-07 6.76433214614000E-07 6.94636835259000E-07 7.13301282754000E-07 
7.32438222987000E-07 7.52059617169000E-07 7.72177729309000E-07 7.92805133882000E-07 
8.13954723689000E-07 8.35639717910000E-07 8.57873670374000E-07 8.80670478024000E-07 
9.04044389607000E-07 9.28010014580000E-07 9.52582332236000E-07 9.77776701076000E-07 
1.00360886840000E-06 1.03009498015000E-06 1.05725159102000E-06 1.08509567476000E-06 
1.11364463483000E-06 1.14291631528000E-06 1.17292901184000E-06 1.20370148343000E-06 
1.23525296385000E-06 1.26760317379000E-06 1.30077233321000E-06 1.33478117389000E-06 
1.36965095247000E-06 1.40540346369000E-06 1.44206105405000E-06 1.47964663573000E-06 
1.51818370094000E-06 1.55769633659000E-06 1.59820923939000E-06 1.63974773119000E-06 
1.68233777493000E-06 1.72600599075000E-06 1.77077967272000E-06 1.81668680585000E-06 
1.86375608359000E-06 1.91201692576000E-06 1.96149949697000E-06 2.01223472544000E-06 
2.06425432232000E-06 2.11759080158000E-06 2.17227750023000E-06 2.22834859925000E-06 
2.28583914490000E-06 2.34478507064000E-06 2.40522321960000E-06 2.46719136758000E-06 
2.53072824670000E-06 2.59587356957000E-06 2.66266805414000E-06 2.73115344913000E-06 
2.80137256016000E-06 2.87336927644000E-06 2.94718859828000E-06 3.02287666514000E-06 
3.10048078454000E-06 3.18004946157000E-06 3.26163242926000E-06 3.34528067960000E-06 
3.43104649548000E-06 3.51898348333000E-06 3.60914660662000E-06 3.70159222025000E-06 
3.79637810573000E-06 3.89356350732000E-06 3.99320916907000E-06 4.09537737275000E-06 
4.20013197683000E-06 4.30753845633000E-06 4.41766394380000E-06 4.53057727127000E-06 
4.64634901323000E-06 4.76505153078000E-06 4.88675901688000E-06 5.01154754266000E-06 
5.13949510500000E-06 5.27068167531000E-06 5.40518924946000E-06 5.54310189905000E-06 
5.68450582400000E-06 5.82948940634000E-06 5.97814326555000E-06 6.13056031512000E-06 
6.28683582067000E-06 6.44706745948000E-06 6.61135538153000E-06 6.77980227214000E-06 
6.95251341608000E-06 7.12959676344000E-06 7.31116299709000E-06 7.49732560183000E-06 
7.68820093534000E-06 7.88390830092000E-06 8.08457002205000E-06 8.29031151884000E-06 
8.50126138641000E-06 8.71755147531000E-06 8.93931697387000E-06 9.16669649276000E-06 
9.39983215158000E-06 9.63886966769000E-06 9.88395844734000E-06 1.01352516790000E-05 
1.03929064291000E-05 1.06570837402000E-05 1.09279487318000E-05 1.12056707033000E-05 
1.14904232400000E-05 1.17823843215000E-05 1.20817364330000E-05 1.23886666792000E-05 
1.27033669016000E-05 1.30260337981000E-05 1.33568690460000E-05 1.36960794280000E-05 
1.40438769617000E-05 1.44004790319000E-05 1.47661085265000E-05 1.51409939758000E-05 
1.55253696955000E-05 1.59194759328000E-05 1.63235590170000E-05 1.67378715132000E-05 
1.71626723801000E-05 1.75982271323000E-05 1.80448080054000E-05 1.85026941272000E-05 
1.89721716913000E-05 1.94535341366000E-05 1.99470823302000E-05 2.04531247558000E-05 
2.09719777064000E-05 2.15039654819000E-05 2.20494205922000E-05 2.26086839642000E-05 
2.31821051560000E-05 2.37700425743000E-05 2.43728636992000E-05 2.49909453136000E-05 
2.56246737385000E-05 2.62744450749000E-05 2.69406654510000E-05 2.76237512761000E-05 
2.83241295013000E-05 2.90422378857000E-05 2.97785252704000E-05 3.05334518589000E-05 
3.13074895050000E-05 3.21011220075000E-05 3.29148454123000E-05 3.37491683233000E-05 
3.46046122193000E-05 3.54817117806000E-05 3.63810152230000E-05 3.73030846405000E-05 
3.82484963564000E-05 3.92178412838000E-05 4.02117252949000E-05 4.12307695995000E-05 
4.22756111336000E-05 4.33469029569000E-05 4.44453146619000E-05 4.55715327917000E-05 
4.67262612690000E-05 4.79102218370000E-05 4.91241545095000E-05 5.03688180338000E-05 
5.16449903653000E-05 5.29534691532000E-05 5.42950722393000E-05 5.56706381692000E-05 
5.70810267164000E-05 5.85271194197000E-05 6.00098201340000E-05 6.15300555956000E-05 
6.30887760012000E-05 6.46869556017000E-05 6.63255933114000E-05 6.80057133322000E-05 
6.97283657939000E-05 7.14946274102000E-05 7.33056021522000E-05 7.51624219381000E-05 
7.70662473407000E-05 7.90182683128000E-05 8.10197049310000E-05 8.30718081585000E-05 
8.51758606265000E-05 8.73331774363000E-05 8.95451069812000E-05 9.18130317891000E-05 
9.41383693869000E-05 9.65225731861000E-05 9.89671333920000E-05 1.01473577934000E-04 
1.04043473422000E-04 1.06678426124000E-04 1.09380082970000E-04 1.12150132586000E-04 
1.14990306342000E-04 1.17902379438000E-04 1.20888172016000E-04 1.23949550293000E-04 
1.27088427730000E-04 1.30306766227000E-04 1.33606577352000E-04 1.36989923593000E-04 
1.40458919651000E-04 1.44015733763000E-04 1.47662589053000E-04 1.51401764924000E-04 
1.55235598483000E-04 1.59166486001000E-04 1.63196884410000E-04 1.67329312840000E-04 
1.71566354194000E-04 1.75910656761000E-04 1.80364935871000E-04 1.84931975593000E-04 
1.89614630476000E-04 1.94415827332000E-04 1.99338567065000E-04 2.04385926548000E-04 
2.09561060544000E-04 2.14867203681000E-04 2.20307672471000E-04 2.25885867385000E-04 
2.31605274975000E-04 2.37469470057000E-04 2.43482117945000E-04 2.49646976738000E-04 
2.55967899675000E-04 2.62448837538000E-04 2.69093841124000E-04 2.75907063777000E-04 
2.82892763982000E-04 2.90055308030000E-04 2.97399172744000E-04 3.04928948278000E-04 
3.12649340988000E-04 3.20565176369000E-04 3.28681402077000E-04 3.37003091017000E-04 
3.45535444516000E-04 3.54283795571000E-04 3.63253612188000E-04 3.72450500794000E-04 
3.81880209743000E-04 3.91548632911000E-04 4.01461813377000E-04 4.11625947201000E-04 
4.22047387297000E-04 4.32732647406000E-04 4.43688406162000E-04 4.54921511272000E-04 
4.66438983791000E-04 4.78248022515000E-04 4.90356008478000E-04 5.02770509565000E-04 
5.15499285243000E-04 5.28550291412000E-04 5.41931685374000E-04 5.55651830938000E-04 
5.69719303640000E-04 5.84142896109000E-04 5.98931623560000E-04 6.14094729428000E-04 
6.29641691149000E-04 6.45582226080000E-04 6.61926297574000E-04 6.78684121208000E-04 
6.95866171167000E-04 7.13483186791000E-04 7.31546179289000E-04 7.50066438619000E-04 
7.69055540546000E-04 7.88525353878000E-04 8.08488047880000E-04 8.28956099887000E-04 
8.49942303097000E-04 8.71459774571000E-04 8.93521963429000E-04 9.16142659257000E-04 
9.39336000726000E-04 9.63116484429000E-04 9.87498973944000E-04 1.01249870912000E-03 
1.03813131560000E-03 1.06441281461000E-03 1.09135963293000E-03 1.11898861321000E-03 
1.14731702445000E-03 1.17636257284000E-03 1.20614341278000E-03 1.23667815828000E-03 
1.26798589453000E-03 1.30008618991000E-03 1.33299910813000E-03 1.36674522085000E-03 
1.40134562047000E-03 1.43682193338000E-03 1.47319633343000E-03 1.51049155580000E-03 
1.54873091122000E-03 1.58793830053000E-03 1.62813822962000E-03 1.66935582477000E-03 
1.71161684830000E-03 1.75494771474000E-03 1.79937550729000E-03 1.84492799475000E-03 
1.89163364893000E-03 1.93952166238000E-03 1.98862196665000E-03 2.03896525105000E-03 
2.09058298175000E-03 2.14350742154000E-03 2.19777164989000E-03 2.25340958372000E-03 
2.31045599856000E-03 2.36894655026000E-03 2.42891779733000E-03 2.49040722374000E-03 
2.55345326240000E-03 2.61809531912000E-03 2.68437379730000E-03 2.75233012315000E-03 
2.82200677157000E-03 2.89344729275000E-03 2.96669633932000E-03 3.04179969435000E-03 
3.11880429985000E-03 3.19775828623000E-03 3.27871100228000E-03 3.36171304610000E-03 
3.44681629667000E-03 3.53407394627000E-03 3.62354053380000E-03 3.71527197877000E-03 
3.80932561633000E-03 3.90576023305000E-03 4.00463610372000E-03 4.10601502898000E-03 
4.20996037394000E-03 4.31653710785000E-03 4.42581184461000E-03 4.53785288451000E-03 
4.65273025683000E-03 4.77051576369000E-03 4.89128302484000E-03 5.01510752376000E-03 
5.14206665480000E-03 5.27223977155000E-03 5.40570823643000E-03 5.54255547159000E-03 
5.68286701100000E-03 5.82673055394000E-03 5.97423601980000E-03 6.12547560432000E-03 
6.28054383714000E-03 6.43953764097000E-03 6.60255639211000E-03 6.76970198258000E-03 
6.94107888381000E-03 7.11679421196000E-03 7.29695779481000E-03 7.48168224048000E-03 
7.67108300776000E-03 7.86527847828000E-03 8.06439003055000E-03 8.26854211576000E-03 
8.47786233562000E-03 8.69248152207000E-03 8.91253381909000E-03 9.13815676653000E-03 
9.36949138608000E-03 9.60668226940000E-03 9.84987766852000E-03 1.00992295885000E-02 
1.03548938824000E-02 1.06170303486000E-02 1.08858028312000E-02 1.11613793215000E-02 
1.14439320638000E-02 1.17336376629000E-02 1.20306771942000E-02 1.23352363170000E-02 
1.26475053907000E-02 1.29676795936000E-02 1.32959590451000E-02 1.36325489304000E-02 
1.39776596293000E-02 1.43315068471000E-02 1.46943117498000E-02 1.50663011025000E-02 
1.54477074104000E-02 1.58387690649000E-02 1.62397304924000E-02 1.66508423067000E-02 
1.70723614662000E-02 1.75045514339000E-02 1.79476823429000E-02 1.84020311641000E-02 
1.88678818806000E-02 1.93455256641000E-02 1.98352610575000E-02 2.03373941614000E-02 
2.08522388254000E-02 2.13801168441000E-02 2.19213581585000E-02 2.24763010619000E-02 
2.30452924119000E-02 2.36286878465000E-02 2.42268520068000E-02 2.48401587649000E-02 
2.54689914575000E-02 2.61137431255000E-02 2.67748167597000E-02 2.74526255526000E-02 
2.81475931568000E-02 2.88601539497000E-02 2.95907533049000E-02 3.03398478709000E-02 
3.11079058561000E-02 3.18954073217000E-02 3.27028444818000E-02 3.35307220110000E-02 
3.43795573596000E-02 3.52498810774000E-02 3.61422371450000E-02 3.70571833140000E-02 
3.79952914555000E-02 3.89571479177000E-02 3.99433538921000E-02 4.09545257897000E-02 
4.19912956257000E-02 4.30543114151000E-02 4.41442375773000E-02 4.52617553517000E-02 
4.64075632232000E-02 4.75823773590000E-02 4.87869320563000E-02 5.00219802010000E-02 
5.12882937383000E-02 5.25866641554000E-02 5.39179029761000E-02 5.52828422680000E-02 
5.66823351626000E-02 5.81172563885000E-02 5.95885028181000E-02 6.10969940285000E-02 
6.26436728756000E-02 6.42295060842000E-02 6.58554848516000E-02 6.75226254674000E-02 
6.92319699489000E-02 7.09845866919000E-02 7.27815711390000E-02 7.46240464640000E-02 
7.65131642739000E-02 7.84501053288000E-02 8.04360802800000E-02 8.24723304264000E-02 
8.45601284907000E-02 8.67007794147000E-02 8.88956211747000E-02 9.11460256185000E-02 
9.34533993220000E-02 9.58191844689000E-02 9.82448597519000E-02 1.00731941297000E-01 
1.03281983611000E-01 1.05896580554000E-01 1.08577366334000E-01 1.11326016528000E-01 
1.14144249134000E-01 1.17033825637000E-01 1.19996552118000E-01 1.23034280377000E-01 
1.26148909093000E-01 1.29342385011000E-01 1.32616704156000E-01 1.35973913085000E-01 
1.39416110162000E-01 1.42945446874000E-01 1.46564129169000E-01 1.50274418843000E-01 
1.54078634948000E-01 1.57979155241000E-01 1.61978417676000E-01 1.66078921922000E-01 
1.70283230927000E-01 1.74593972520000E-01 1.79013841057000E-01 1.83545599099000E-01 
1.88192079141000E-01 1.92956185386000E-01 1.97840895555000E-01 2.02849262750000E-01 
2.07984417364000E-01 2.13249569037000E-01 2.18648008658000E-01 2.24183110430000E-01 
2.29858333969000E-01 2.35677226477000E-01 2.41643424950000E-01 2.47760658456000E-01 
2.54032750466000E-01 2.60463621240000E-01 2.67057290284000E-01 2.73817878854000E-01 
2.80749612539000E-01 2.87856823897000E-01 2.95143955167000E-01 3.02615561044000E-01 
3.10276311524000E-01 3.18130994826000E-01 3.26184520382000E-01 3.34441921908000E-01 
3.42908360549000E-01 3.51589128105000E-01 3.60489650338000E-01 3.69615490364000E-01 
3.78972352129000E-01 3.88566083979000E-01 3.98402682306000E-01 4.08488295305000E-01 
4.18829226813000E-01 4.29431940249000E-01 4.40303062653000E-01 4.51449388831000E-01 
4.62877885600000E-01 4.74595696141000E-01 4.86610144469000E-01 4.98928740004000E-01 
5.11559182270000E-01 5.24509365705000E-01 5.37787384593000E-01 5.51401538130000E-01 
5.65360335605000E-01 5.79672501720000E-01 5.94346982046000E-01 6.09392948609000E-01 
6.24819805629000E-01 6.40637195395000E-01 6.56855004288000E-01 6.73483368968000E-01 
6.90532682705000E-01 7.08013601873000E-01 7.25937052617000E-01 7.44314237677000E-01 
7.63156643391000E-01 7.82476046877000E-01 8.02284523391000E-01 8.22594453875000E-01 
8.43418532698000E-01 8.64769775585000E-01 8.86661527759000E-01 9.09107472279000E-01 
9.32121638589000E-01 9.55718411293000E-01 9.79912539142000E-01 1.00471914425000E+00 
1.03015373156000E+00 1.05623219852000E+00 1.08297084500000E+00 1.11038638355000E+00 
1.13849594976000E+00 1.16731711302000E+00 1.19686788751000E+00 1.22716674341000E+00 
1.25823261850000E+00 1.29008492997000E+00 1.32274358654000E+00 1.35622900093000E+00 
1.39056210263000E+00 1.42576435093000E+00 1.46185774839000E+00 1.49886485456000E+00 
1.53680880009000E+00 1.57571330116000E+00 1.61560267437000E+00 1.65650185188000E+00 
1.69843639698000E+00 1.74143252016000E+00 1.78551709537000E+00 1.83071767692000E+00 
1.87706251663000E+00 1.92458058155000E+00 1.97330157201000E+00 2.02325594022000E+00 
2.07447490928000E+00 2.12699049271000E+00 2.18083551447000E+00 2.23604362944000E+00 
2.29264934450000E+00 2.35068804005000E+00 2.41019599218000E+00 2.47121039529000E+00 
2.53376938537000E+00 2.59791206382000E+00 2.66367852191000E+00 2.73110986581000E+00 
2.80024824231000E+00 2.87113686514000E+00 2.94382004200000E+00 3.01834320225000E+00 
3.09475292527000E+00 3.17309696965000E+00 3.25342430295000E+00 3.33578513238000E+00 
3.42023093613000E+00 3.50681449558000E+00 3.59558992827000E+00 3.68661272174000E+00 
3.77993976820000E+00 3.87562940008000E+00 3.97374142653000E+00 4.07433717076000E+00 
4.17747950837000E+00 4.28323290670000E+00 4.39166346504000E+00 4.50283895604000E+00 
4.61682886800000E+00 4.73370444831000E+00 4.85353874803000E+00 4.97640666748000E+00 
5.10238500313000E+00 5.23155249552000E+00 5.36398987856000E+00 5.49977992991000E+00 
5.63900752277000E+00 5.78175967893000E+00 5.92812562312000E+00 6.07819683883000E+00 
6.23206712546000E+00 6.38983265694000E+00 6.55159204186000E+00 6.71744638510000E+00 
6.88749935104000E+00 7.06185722830000E+00 7.24062899624000E+00 7.42392639303000E+00 
7.61186398552000E+00 7.80455924081000E+00 8.00213259971000E+00 8.20470755200000E+00 
8.41241071363000E+00 8.62537190582000E+00 8.84372423627000E+00 9.06760418227000E+00 
9.29715167609000E+00 9.53251019239000E+00 9.77382683789000E+00 1.00212524434000E+01 
1.02749416578000E+01 1.05350530454000E+01 1.08017491840000E+01 1.10751967676000E+01 
1.13555667097000E+01 1.16430342506000E+01 1.19377790670000E+01 1.22399853840000E+01 
1.25498420903000E+01 1.28675428564000E+01 1.31932862558000E+01 1.35272758885000E+01 
1.38697205091000E+01 1.42208341565000E+01 1.45808362882000E+01 1.49499519173000E+01 
1.53284117530000E+01 1.57164523450000E+01 1.61143162314000E+01 1.65222520901000E+01 
1.69405148942000E+01 1.73693660715000E+01 1.78090736681000E+01 1.82599125156000E+01 
1.87221644027000E+01 1.91961182521000E+01 1.96820703004000E+01 2.01803242833000E+01 
2.06911916258000E+01 2.12149916367000E+01 2.17520517080000E+01 2.23027075197000E+01 
2.28673032497000E+01 2.34461917886000E+01 2.40397349606000E+01 2.46483037496000E+01 
2.52722785308000E+01 2.59120493088000E+01 2.65680159612000E+01 2.72405884884000E+01 
2.79301872703000E+01 2.86372433284000E+01 2.93621985958000E+01 3.01055061932000E+01 
3.08676307120000E+01 3.16490485048000E+01 3.24502479833000E+01 3.32717299231000E+01 
3.41140077773000E+01 3.49776079968000E+01 3.58630703600000E+01 3.67709483096000E+01 
3.77018092989000E+01 3.86562351464000E+01 3.96348223992000E+01 4.06381827063000E+01 
4.16669432005000E+01 4.27217468906000E+01 4.38032530632000E+01 4.49121376950000E+01 
4.60490938748000E+01 4.72148322374000E+01 4.84100814071000E+01 4.96355884536000E+01 
5.08921193586000E+01 5.21804594950000E+01 5.35014141172000E+01 5.48558088649000E+01 
5.62444902789000E+01 5.76683263302000E+01 5.91282069628000E+01 6.06250446495000E+01 
6.21597749627000E+01 6.37333571587000E+01 6.53467747777000E+01 6.70010362582000E+01 
6.86971755674000E+01 7.04362528477000E+01 7.22193550789000E+01 7.40475967580000E+01 
7.59221205955000E+01 7.78440982299000E+01 7.98147309598000E+01 8.18352504948000E+01 
8.39069197253000E+01 8.60310335120000E+01 8.82089194953000E+01 9.04419389247000E+01 
9.27314875102000E+01 9.50789962940000E+01 9.74859325456000E+01 9.99538006785000E+01 
1.02484143191000E+02 1.05078541628000E+02 1.07738617575000E+02 1.10466033665000E+02 
1.13262494623000E+02 1.16129748326000E+02 1.19069586902000E+02 1.22083847847000E+02 
1.25174415170000E+02 1.28343220578000E+02 1.31592244676000E+02 1.34923518211000E+02 
1.38339123338000E+02 1.41841194919000E+02 1.45431921865000E+02 1.49113548496000E+02 
1.52888375949000E+02 1.56758763614000E+02 1.60727130610000E+02 1.64795957294000E+02 
1.68967786816000E+02 1.73245226705000E+02 1.77630950500000E+02 1.82127699422000E+02 
1.86738284085000E+02 1.91465586254000E+02 1.96312560647000E+02 2.01282236781000E+02 
2.06377720866000E+02 
</PP_R>
    <PP_RAB>
1.06619311650000E-09 1.09318392375000E-09 1.12085800653000E-09 1.14923266206000E-09 
1.17832562541000E-09 1.20815508063000E-09 1.23873967211000E-09 1.27009851621000E-09 
1.30225121323000E-09 1.33521785964000E-09 1.36901906068000E-09 1.40367594321000E-09 
1.43921016889000E-09 1.47564394777000E-09 1.51300005216000E-09 1.55130183083000E-09 
1.59057322365000E-09 1.63083877651000E-09 1.67212365669000E-09 1.71445366859000E-09 
1.75785526985000E-09 1.80235558787000E-09 1.84798243680000E-09 1.89476433492000E-09 
1.94273052242000E-09 1.99191097974000E-09 2.04233644627000E-09 2.09403843956000E-09 
2.14704927504000E-09 2.20140208621000E-09 2.25713084534000E-09 2.31427038473000E-09 
2.37285641845000E-09 2.43292556467000E-09 2.49451536857000E-09 2.55766432577000E-09 
2.62241190644000E-09 2.68879857991000E-09 2.75686584003000E-09 2.82665623104000E-09 
2.89821337421000E-09 2.97158199509000E-09 3.04680795144000E-09 3.12393826194000E-09 
3.20302113556000E-09 3.28410600165000E-09 3.36724354089000E-09 3.45248571696000E-09 
3.53988580900000E-09 3.62949844490000E-09 3.72137963547000E-09 3.81558680946000E-09 
3.91217884941000E-09 4.01121612850000E-09 4.11276054824000E-09 4.21687557721000E-09 
4.32362629068000E-09 4.43307941133000E-09 4.54530335093000E-09 4.66036825308000E-09 
4.77834603709000E-09 4.89931044293000E-09 5.02333707728000E-09 5.15050346082000E-09 
5.28088907669000E-09 5.41457542015000E-09 5.55164604950000E-09 5.69218663835000E-09 
5.83628502915000E-09 5.98403128807000E-09 6.13551776135000E-09 6.29083913296000E-09 
6.45009248381000E-09 6.61337735243000E-09 6.78079579718000E-09 6.95245246004000E-09 
7.12845463201000E-09 7.30891232017000E-09 7.49393831646000E-09 7.68364826814000E-09 
7.87816075012000E-09 8.07759733902000E-09 8.28208268920000E-09 8.49174461067000E-09 
8.70671414895000E-09 8.92712566701000E-09 9.15311692920000E-09 9.38482918744000E-09 
9.62240726942000E-09 9.86599966918000E-09 1.01157586399000E-08 1.03718402891000E-08 
1.06344046760000E-08 1.09036159121000E-08 1.11796422631000E-08 1.14626562544000E-08 
1.17528347790000E-08 1.20503592079000E-08 1.23554155037000E-08 1.26681943363000E-08 
1.29888912027000E-08 1.33177065490000E-08 1.36548458954000E-08 1.40005199650000E-08 
1.43549448153000E-08 1.47183419734000E-08 1.50909385744000E-08 1.54729675032000E-08 
1.58646675404000E-08 1.62662835113000E-08 1.66780664389000E-08 1.71002737009000E-08 
1.75331691906000E-08 1.79770234819000E-08 1.84321139980000E-08 1.88987251854000E-08 
1.93771486912000E-08 1.98676835457000E-08 2.03706363492000E-08 2.08863214636000E-08 
2.14150612087000E-08 2.19571860643000E-08 2.25130348758000E-08 2.30829550671000E-08 
2.36673028567000E-08 2.42664434810000E-08 2.48807514224000E-08 2.55106106434000E-08 
2.61564148265000E-08 2.68185676203000E-08 2.74974828919000E-08 2.81935849854000E-08 
2.89073089874000E-08 2.96391009984000E-08 3.03894184124000E-08 3.11587302022000E-08 
3.19475172127000E-08 3.27562724614000E-08 3.35855014467000E-08 3.44357224636000E-08 
3.53074669282000E-08 3.62012797089000E-08 3.71177194678000E-08 3.80573590097000E-08 
3.90207856399000E-08 4.00086015314000E-08 4.10214241011000E-08 4.20598863963000E-08 
4.31246374897000E-08 4.42163428853000E-08 4.53356849346000E-08 4.64833632628000E-08 
4.76600952062000E-08 4.88666162605000E-08 5.01036805408000E-08 5.13720612524000E-08 
5.26725511746000E-08 5.40059631559000E-08 5.53731306222000E-08 5.67749080977000E-08 
5.82121717390000E-08 5.96858198826000E-08 6.11967736065000E-08 6.27459773060000E-08 
6.43343992840000E-08 6.59630323557000E-08 6.76328944699000E-08 6.93450293449000E-08 
7.11005071205000E-08 7.29004250276000E-08 7.47459080735000E-08 7.66381097451000E-08 
7.85782127300000E-08 8.05674296559000E-08 8.26070038480000E-08 8.46982101065000E-08 
8.68423555036000E-08 8.90407801998000E-08 9.12948582821000E-08 9.36059986228000E-08 
9.59756457597000E-08 9.84052807996000E-08 1.00896422343000E-07 1.03450627435000E-07 
1.06069492537000E-07 1.08754654525000E-07 1.11507791712000E-07 1.14330624898000E-07 
1.17224918447000E-07 1.20192481386000E-07 1.23235168539000E-07 1.26354881683000E-07 
1.29553570742000E-07 1.32833234999000E-07 1.36195924353000E-07 1.39643740593000E-07 
1.43178838716000E-07 1.46803428275000E-07 1.50519774755000E-07 1.54330200995000E-07 
1.58237088633000E-07 1.62242879603000E-07 1.66350077655000E-07 1.70561249920000E-07 
1.74879028518000E-07 1.79306112203000E-07 1.83845268044000E-07 1.88499333162000E-07 
1.93271216500000E-07 1.98163900639000E-07 2.03180443668000E-07 2.08323981087000E-07 
2.13597727777000E-07 2.19004979999000E-07 2.24549117463000E-07 2.30233605436000E-07 
2.36061996906000E-07 2.42037934809000E-07 2.48165154300000E-07 2.54447485091000E-07 
2.60888853843000E-07 2.67493286622000E-07 2.74264911412000E-07 2.81207960700000E-07 
2.88326774118000E-07 2.95625801155000E-07 3.03109603941000E-07 3.10782860097000E-07 
3.18650365657000E-07 3.26717038069000E-07 3.34987919265000E-07 3.43468178816000E-07 
3.52163117159000E-07 3.61078168914000E-07 3.70218906279000E-07 3.79591042512000E-07 
3.89200435503000E-07 3.99053091436000E-07 4.09155168541000E-07 4.19512980946000E-07 
4.30133002620000E-07 4.41021871423000E-07 4.52186393252000E-07 4.63633546297000E-07 
4.75370485400000E-07 4.87404546532000E-07 4.99743251372000E-07 5.12394312011000E-07 
5.25365635776000E-07 5.38665330165000E-07 5.52301707920000E-07 5.66283292222000E-07 
5.80618822016000E-07 5.95317257474000E-07 6.10387785597000E-07 6.25839825956000E-07 
6.41683036579000E-07 6.57927319989000E-07 6.74582829391000E-07 6.91659975020000E-07 
7.09169430650000E-07 7.27122140259000E-07 7.45529324876000E-07 7.64402489589000E-07 
7.83753430742000E-07 8.03594243303000E-07 8.23937328425000E-07 8.44795401199000E-07 
8.66181498599000E-07 8.88108987632000E-07 9.10591573692000E-07 9.33643309129000E-07 
9.57278602026000E-07 9.81512225212000E-07 1.00635932549000E-06 1.03183543311000E-06 
1.05795647146000E-06 1.08473876704000E-06 1.11219905967000E-06 1.14035451291000E-06 
1.16922272484000E-06 1.19882173904000E-06 1.22917005585000E-06 1.26028664396000E-06 
1.29219095225000E-06 1.32490292195000E-06 1.35844299910000E-06 1.39283214735000E-06 
1.42809186103000E-06 1.46424417861000E-06 1.50131169647000E-06 1.53931758301000E-06 
1.57828559315000E-06 1.61824008316000E-06 1.65920602590000E-06 1.70120902642000E-06 
1.74427533796000E-06 1.78843187837000E-06 1.83370624692000E-06 1.88012674157000E-06 
1.92772237663000E-06 1.97652290094000E-06 2.02655881639000E-06 2.07786139708000E-06 
2.13046270878000E-06 2.18439562903000E-06 2.23969386765000E-06 2.29639198784000E-06 
2.35452542779000E-06 2.41413052277000E-06 2.47524452792000E-06 2.53790564147000E-06 
2.60215302866000E-06 2.66802684620000E-06 2.73556826738000E-06 2.80481950777000E-06 
2.87582385166000E-06 2.94862567907000E-06 3.02327049352000E-06 3.09980495044000E-06 
3.17827688636000E-06 3.25873534880000E-06 3.34123062691000E-06 3.42581428293000E-06 
3.51253918440000E-06 3.60145953720000E-06 3.69263091945000E-06 3.78611031622000E-06 
3.88195615520000E-06 3.98022834314000E-06 4.08098830336000E-06 4.18429901412000E-06 
4.29022504797000E-06 4.39883261214000E-06 4.51018958988000E-06 4.62436558293000E-06 
4.74143195502000E-06 4.86146187642000E-06 4.98453036974000E-06 5.11071435681000E-06 
5.24009270672000E-06 5.37274628515000E-06 5.50875800490000E-06 5.64821287774000E-06 
5.79119806749000E-06 5.93780294454000E-06 6.08811914174000E-06 6.24224061158000E-06 
6.40026368500000E-06 6.56228713157000E-06 6.72841222123000E-06 6.89874278754000E-06 
7.07338529268000E-06 7.25244889388000E-06 7.43604551172000E-06 7.62428990008000E-06 
7.81729971781000E-06 8.01519560234000E-06 8.21810124504000E-06 8.42614346854000E-06 
8.63945230601000E-06 8.85816108240000E-06 9.08240649782000E-06 9.31232871297000E-06 
9.54807143670000E-06 9.78978201590000E-06 1.00376115275000E-05 1.02917148731000E-05 
1.05522508755000E-05 1.08193823783000E-05 1.10932763472000E-05 1.13741039749000E-05 
1.16620407879000E-05 1.19572667560000E-05 1.22599664051000E-05 1.25703289322000E-05 
1.28885483242000E-05 1.32148234784000E-05 1.35493583275000E-05 1.38923619666000E-05 
1.42440487841000E-05 1.46046385958000E-05 1.49743567821000E-05 1.53534344288000E-05 
1.57421084719000E-05 1.61406218451000E-05 1.65492236325000E-05 1.69681692233000E-05 
1.73977204723000E-05 1.78381458629000E-05 1.82897206753000E-05 1.87527271586000E-05 
1.92274547068000E-05 1.97142000401000E-05 2.02132673901000E-05 2.07249686903000E-05 
2.12496237705000E-05 2.17875605574000E-05 2.23391152788000E-05 2.29046326745000E-05 
2.34844662113000E-05 2.40789783038000E-05 2.46885405417000E-05 2.53135339211000E-05 
2.59543490832000E-05 2.66113865584000E-05 2.72850570164000E-05 2.79757815233000E-05 
2.86839918043000E-05 2.94101305140000E-05 3.01546515126000E-05 3.09180201500000E-05 
3.17007135565000E-05 3.25032209409000E-05 3.33260438964000E-05 3.41696967143000E-05 
3.50347067049000E-05 3.59216145276000E-05 3.68309745288000E-05 3.77633550881000E-05 
3.87193389735000E-05 3.96995237063000E-05 4.07045219337000E-05 4.17349618123000E-05 
4.27914874007000E-05 4.38747590616000E-05 4.49854538753000E-05 4.61242660620000E-05 
4.72919074164000E-05 4.84891077525000E-05 4.97166153594000E-05 5.09751974693000E-05 
5.22656407369000E-05 5.35887517315000E-05 5.49453574403000E-05 5.63363057862000E-05 
5.77624661571000E-05 5.92247299496000E-05 6.07240111263000E-05 6.22612467867000E-05 
6.38373977531000E-05 6.54534491712000E-05 6.71104111257000E-05 6.88093192718000E-05 
7.05512354824000E-05 7.23372485118000E-05 7.41684746762000E-05 7.60460585518000E-05 
7.79711736894000E-05 7.99450233488000E-05 8.19688412502000E-05 8.40438923457000E-05 
8.61714736098000E-05 8.83529148500000E-05 9.05895795381000E-05 9.28828656624000E-05 
9.52342066013000E-05 9.76450720194000E-05 1.00116968786000E-04 1.02651441918000E-04 
1.05250075542000E-04 1.07914493889000E-04 1.10646362308000E-04 1.13447388306000E-04 
1.16319322614000E-04 1.19263960285000E-04 1.22283141814000E-04 1.25378754287000E-04 
1.28552732563000E-04 1.31807060482000E-04 1.35143772104000E-04 1.38564952983000E-04 
1.42072741468000E-04 1.45669330042000E-04 1.49356966688000E-04 1.53137956301000E-04 