<UPF version="2.0.1">
  <PP_INFO>
Generated using Vanderbilt code, version   7  3  6
Author: kfg        Generation date:   22    9   15
Automatically converted from original format
1        The Pseudo was generated with a Scalar-Relativistic Calculation
1.30000000000E+00    Local Potential cutoff radius
nl pn  l   occ               Rcut            Rcut US             E pseu
2S  2  0  2.00      0.00000000000      1.35000000000     -6.03265571300
2P  2  1  6.00      0.00000000000      1.45000000000     -3.60392004200
3S  3  0  1.70      0.00000000000      1.35000000000     -0.48277091400
</PP_INFO>
  <PP_HEADER element="Mg" pseudo_type="US" relativistic="scalar" is_ultrasoft="T" is_paw="F" is_coulomb="F" has_so="F" has_wfc="F" has_gipaw="F" core_correction="F" functional="PBESOL" z_valence="10.0" total_psenergy="-124.867773086" wfc_cutoff="0.0" rho_cutoff="0.0" l_max="2" mesh_size="821" number_of_wfc="3" number_of_proj="7"/>
  <PP_MESH>
    <PP_R>
0.00000000000000E+00 4.76837594689000E-09 9.65746390557000E-09 1.46703197152000E-08 
1.98100765738000E-08 2.50799469967000E-08 3.04832248246000E-08 3.60232872819000E-08 
4.17035970880000E-08 4.75277046215000E-08 5.34992501391000E-08 5.96219660512000E-08 
6.58996792546000E-08 7.23363135244000E-08 7.89358919664000E-08 8.57025395321000E-08 
9.26404855965000E-08 9.97540666017000E-08 1.07047728767000E-07 1.14526030870000E-07 
1.22193647091000E-07 1.30055369942000E-07 1.38116113254000E-07 1.46380915254000E-07 
1.54854941713000E-07 1.63543489173000E-07 1.72451988259000E-07 1.81586007074000E-07 
1.90951254675000E-07 2.00553584648000E-07 2.10398998762000E-07 2.20493650721000E-07 
2.30843850011000E-07 2.41456065843000E-07 2.52336931198000E-07 2.63493246971000E-07 
2.74931986222000E-07 2.86660298537000E-07 2.98685514490000E-07 3.11015150236000E-07 
3.23656912196000E-07 3.36618701883000E-07 3.49908620839000E-07 3.63534975695000E-07 
3.77506283367000E-07 3.91831276376000E-07 4.06518908309000E-07 4.21578359415000E-07 
4.37019042341000E-07 4.52850608017000E-07 4.69082951685000E-07 4.85726219090000E-07 
5.02790812815000E-07 5.20287398787000E-07 5.38226912941000E-07 5.56620568059000E-07 
5.75479860772000E-07 5.94816578754000E-07 6.14642808082000E-07 6.34970940795000E-07 
6.55813682637000E-07 6.77184061002000E-07 6.99095433070000E-07 7.21561494163000E-07 
7.44596286301000E-07 7.68214206977000E-07 7.92430018163000E-07 8.17258855526000E-07 
8.42716237901000E-07 8.68818076978000E-07 8.95580687257000E-07 9.23020796241000E-07 
9.51155554892000E-07 9.80002548348000E-07 1.00957980692000E-06 1.03990581736000E-06 
1.07099953441000E-06 1.10288039265000E-06 1.13556831866000E-06 1.16908374346000E-06 
1.20344761527000E-06 1.23868141264000E-06 1.27480715784000E-06 1.31184743064000E-06 
1.34982538240000E-06 1.38876475059000E-06 1.42868987358000E-06 1.46962570587000E-06 
1.51159783368000E-06 1.55463249097000E-06 1.59875657580000E-06 1.64399766715000E-06 
1.69038404219000E-06 1.73794469389000E-06 1.78670934923000E-06 1.83670848770000E-06 
1.88797336038000E-06 1.94053600949000E-06 1.99442928840000E-06 2.04968688216000E-06 
2.10634332856000E-06 2.16443403974000E-06 2.22399532427000E-06 2.28506440990000E-06 
2.34767946679000E-06 2.41187963139000E-06 2.47770503089000E-06 2.54519680832000E-06 
2.61439714823000E-06 2.68534930308000E-06 2.75809762029000E-06 2.83268756991000E-06 
2.90916577310000E-06 2.98758003121000E-06 3.06797935573000E-06 3.15041399883000E-06 
3.23493548486000E-06 3.32159664249000E-06 3.41045163778000E-06 3.50155600798000E-06 
3.59496669629000E-06 3.69074208744000E-06 3.78894204415000E-06 3.88962794461000E-06 
3.99286272077000E-06 4.09871089773000E-06 4.20723863404000E-06 4.31851376309000E-06 
4.43260583543000E-06 4.54958616234000E-06 4.66952786032000E-06 4.79250589685000E-06 
4.91859713719000E-06 5.04788039247000E-06 5.18043646895000E-06 5.31634821848000E-06 
5.45570059032000E-06 5.59858068426000E-06 5.74507780499000E-06 5.89528351800000E-06 
6.04929170673000E-06 6.20719863132000E-06 6.36910298873000E-06 6.53510597447000E-06 
6.70531134580000E-06 6.87982548662000E-06 7.05875747395000E-06 7.24221914610000E-06 
7.43032517260000E-06 7.62319312583000E-06 7.82094355453000E-06 8.02370005918000E-06 
8.23158936918000E-06 8.44474142211000E-06 8.66328944496000E-06 8.88737003734000E-06 
9.11712325693000E-06 9.35269270696000E-06 9.59422562601000E-06 9.84187298002000E-06 
1.00957895566000E-05 1.03561340620000E-05 1.06230692199000E-05 1.08967618735000E-05 
1.11773830896000E-05 1.14651082656000E-05 1.17601172391000E-05 1.20625944003000E-05 
1.23727288074000E-05 1.26907143043000E-05 1.30167496424000E-05 1.33510386044000E-05 
1.36937901317000E-05 1.40452184553000E-05 1.44055432292000E-05 1.47749896682000E-05 
1.51537886884000E-05 1.55421770514000E-05 1.59403975126000E-05 1.63486989728000E-05 
1.67673366336000E-05 1.71965721573000E-05 1.76366738301000E-05 1.80879167297000E-05 
1.85505828977000E-05 1.90249615155000E-05 1.95113490851000E-05 2.00100496148000E-05 
2.05213748084000E-05 2.10456442610000E-05 2.15831856579000E-05 2.21343349801000E-05 
2.26994367138000E-05 2.32788440660000E-05 2.38729191851000E-05 2.44820333875000E-05 
2.51065673893000E-05 2.57469115447000E-05 2.64034660895000E-05 2.70766413918000E-05 
2.77668582080000E-05 2.84745479460000E-05 2.92001529351000E-05 2.99441267019000E-05 
3.07069342543000E-05 3.14890523719000E-05 3.22909699038000E-05 3.31131880747000E-05 
3.39562207977000E-05 3.48205949957000E-05 3.57068509307000E-05 3.66155425415000E-05 
3.75472377900000E-05 3.85025190159000E-05 3.94819833013000E-05 4.04862428430000E-05 
4.15159253361000E-05 4.25716743657000E-05 4.36541498091000E-05 4.47640282488000E-05 
4.59020033951000E-05 4.70687865193000E-05 4.82651068989000E-05 4.94917122731000E-05 
5.07493693102000E-05 5.20388640868000E-05 5.33610025790000E-05 5.47166111666000E-05 
5.61065371489000E-05 5.75316492750000E-05 5.89928382863000E-05 6.04910174735000E-05 
6.20271232475000E-05 6.36021157242000E-05 6.52169793253000E-05 6.68727233931000E-05 
6.85703828216000E-05 7.03110187031000E-05 7.20957189917000E-05 7.39255991832000E-05 
7.58018030123000E-05 7.77255031675000E-05 7.96979020239000E-05 8.17202323951000E-05 
8.37937583035000E-05 8.59197757701000E-05 8.80996136251000E-05 9.03346343381000E-05 
9.26262348698000E-05 9.49758475452000E-05 9.73849409487000E-05 9.98550208420000E-05 
1.02387631106000E-04 1.04984354703000E-04 1.07646814672000E-04 1.10376675135000E-04 
1.13175642345000E-04 1.16045465747000E-04 1.18987939075000E-04 1.22004901470000E-04 
1.25098238631000E-04 1.28269883995000E-04 1.31521819944000E-04 1.34856079044000E-04 
1.38274745314000E-04 1.41779955533000E-04 1.45373900571000E-04 1.49058826761000E-04 
1.52837037302000E-04 1.56710893698000E-04 1.60682817235000E-04 1.64755290496000E-04 
1.68930858907000E-04 1.73212132337000E-04 1.77601786719000E-04 1.82102565731000E-04 
1.86717282507000E-04 1.91448821393000E-04 1.96300139757000E-04 2.01274269830000E-04 
2.06374320605000E-04 2.11603479780000E-04 2.16965015750000E-04 2.22462279649000E-04 
2.28098707447000E-04 2.33877822093000E-04 2.39803235723000E-04 2.45878651914000E-04 
2.52107867997000E-04 2.58494777437000E-04 2.65043372259000E-04 2.71757745547000E-04 
2.78642094005000E-04 2.85700720574000E-04 2.92938037125000E-04 3.00358567217000E-04 
3.07966948923000E-04 3.15767937728000E-04 3.23766409506000E-04 3.31967363560000E-04 
3.40375925755000E-04 3.48997351715000E-04 3.57837030112000E-04 3.66900486033000E-04 
3.76193384434000E-04 3.85721533677000E-04 3.95490889167000E-04 4.05507557069000E-04 
4.15777798125000E-04 4.26308031572000E-04 4.37104839148000E-04 4.48174969209000E-04 
4.59525340946000E-04 4.71163048712000E-04 4.83095366453000E-04 4.95329752255000E-04 
5.07873853009000E-04 5.20735509185000E-04 5.33922759737000E-04 5.47443847127000E-04 
5.61307222473000E-04 5.75521550837000E-04 5.90095716637000E-04 6.05038829201000E-04 
6.20360228460000E-04 6.36069490788000E-04 6.52176434985000E-04 6.68691128416000E-04 
6.85623893301000E-04 7.02985313170000E-04 7.20786239476000E-04 7.39037798377000E-04 
7.57751397691000E-04 7.76938734027000E-04 7.96611800095000E-04 8.16782892201000E-04 
8.37464617936000E-04 8.58669904049000E-04 8.80412004537000E-04 9.02704508919000E-04 
9.25561350736000E-04 9.48996816259000E-04 9.73025553416000E-04 9.97662580950000E-04 
1.02292329781000E-03 1.04882349275000E-03 1.07537935426000E-03 1.10260748059000E-03 
1.13052489023000E-03 1.15914903246000E-03 1.18849779830000E-03 1.21858953168000E-03 
1.24944304092000E-03 1.28107761047000E-03 1.31351301295000E-03 1.34676952156000E-03 
1.38086792270000E-03 1.41582952896000E-03 1.45167619251000E-03 1.48843031866000E-03 
1.52611487994000E-03 1.56475343044000E-03 1.60437012050000E-03 1.64498971184000E-03 
1.68663759303000E-03 1.72933979536000E-03 1.77312300908000E-03 1.81801460014000E-03 
1.86404262723000E-03 1.91123585938000E-03 1.95962379388000E-03 2.00923667478000E-03 
2.06010551174000E-03 2.11226209944000E-03 2.16573903745000E-03 2.22056975058000E-03 
2.27678850982000E-03 2.33443045373000E-03 2.39353161040000E-03 2.45412891998000E-03 
2.51626025774000E-03 2.57996445781000E-03 2.64528133739000E-03 2.71225172164000E-03 
2.78091746924000E-03 2.85132149852000E-03 2.92350781429000E-03 2.99752153534000E-03 
3.07340892265000E-03 3.15121740833000E-03 3.23099562519000E-03 3.31279343723000E-03 
3.39666197075000E-03 3.48265364629000E-03 3.57082221147000E-03 3.66122277450000E-03 
3.75391183868000E-03 3.84894733769000E-03 3.94638867181000E-03 4.04629674505000E-03 
4.14873400320000E-03 4.25376447290000E-03 4.36145380159000E-03 4.47186929861000E-03 
4.58507997725000E-03 4.70115659786000E-03 4.82017171212000E-03 4.94219970834000E-03 
5.06731685798000E-03 5.19560136336000E-03 5.32713340644000E-03 5.46199519905000E-03 
5.60027103420000E-03 5.74204733877000E-03 5.88741272759000E-03 6.03645805874000E-03 
6.18927649041000E-03 6.34596353910000E-03 6.50661713931000E-03 6.67133770478000E-03 
6.84022819121000E-03 7.01339416066000E-03 7.19094384750000E-03 7.37298822606000E-03 
7.55964108000000E-03 7.75101907344000E-03 7.94724182385000E-03 8.14843197683000E-03 
8.35471528278000E-03 8.56622067549000E-03 8.78308035270000E-03 9.00542985879000E-03 
9.23340816941000E-03 9.46715777845000E-03 9.70682478701000E-03 9.95255899478000E-03 
1.02045139936000E-02 1.04628472636000E-02 1.07277202715000E-02 1.09992985715000E-02 
1.12777519089000E-02 1.15632543261000E-02 1.18559842714000E-02 1.21561247106000E-02 
1.24638632411000E-02 1.27793922096000E-02 1.31029088320000E-02 1.34346153167000E-02 
1.37747189910000E-02 1.41234324308000E-02 1.44809735934000E-02 1.48475659536000E-02 
1.52234386436000E-02 1.56088265960000E-02 1.60039706909000E-02 1.64091179062000E-02 
1.68245214721000E-02 1.72504410293000E-02 1.76871427914000E-02 1.81348997113000E-02 
1.85939916516000E-02 1.90647055597000E-02 1.95473356470000E-02 2.00421835732000E-02 
2.05495586343000E-02 2.10697779563000E-02 2.16031666930000E-02 2.21500582300000E-02 
2.27107943921000E-02 2.32857256577000E-02 2.38752113776000E-02 2.44796199995000E-02 
2.50993292986000E-02 2.57347266132000E-02 2.63862090875000E-02 2.70541839191000E-02 
2.77390686141000E-02 2.84412912476000E-02 2.91612907318000E-02 2.98995170897000E-02 
3.06564317368000E-02 3.14325077695000E-02 3.22282302604000E-02 3.30440965621000E-02 
3.38806166176000E-02 3.47383132791000E-02 3.56177226349000E-02 3.65193943446000E-02 
3.74438919823000E-02 3.83917933891000E-02 3.93636910343000E-02 4.03601923855000E-02 
4.13819202885000E-02 4.24295133565000E-02 4.35036263693000E-02 4.46049306825000E-02 
4.57341146471000E-02 4.68918840398000E-02 4.80789625043000E-02 4.92960920031000E-02 
5.05440332819000E-02 5.18235663446000E-02 5.31354909410000E-02 5.44806270667000E-02 
5.58598154755000E-02 5.72739182051000E-02 5.87238191158000E-02 6.02104244427000E-02 
6.17346633627000E-02 6.32974885746000E-02 6.48998768952000E-02 6.65428298692000E-02 
6.82273743957000E-02 6.99545633700000E-02 7.17254763413000E-02 7.35412201879000E-02 
7.54029298089000E-02 7.73117688333000E-02 7.92689303476000E-02 8.12756376416000E-02 
8.33331449725000E-02 8.54427383496000E-02 8.76057363372000E-02 8.98234908796000E-02 
9.20973881455000E-02 9.44288493948000E-02 9.68193318666000E-02 9.92703296902000E-02 
1.01783374819000E-01 1.04360037989000E-01 1.07001929697000E-01 1.09710701212000E-01 
1.12488045604000E-01 1.15335698804000E-01 1.18255440689000E-01 1.21249096191000E-01 
1.24318536443000E-01 1.27465679944000E-01 1.30692493763000E-01 1.34000994763000E-01 
1.37393250864000E-01 1.40871382337000E-01 1.44437563128000E-01 1.48094022215000E-01 
1.51843045005000E-01 1.55686974759000E-01 1.59628214057000E-01 1.63669226303000E-01 
1.67812537262000E-01 1.72060736636000E-01 1.76416479690000E-01 1.80882488905000E-01 
1.85461555680000E-01 1.90156542083000E-01 1.94970382633000E-01 1.99906086136000E-01 
2.04966737569000E-01 2.10155500002000E-01 2.15475616582000E-01 2.20930412554000E-01 
2.26523297344000E-01 2.32257766686000E-01 2.38137404811000E-01 2.44165886684000E-01 
2.50346980301000E-01 2.56684549049000E-01 2.63182554113000E-01 2.69845056959000E-01 
2.76676221867000E-01 2.83680318538000E-01 2.90861724761000E-01 2.98224929148000E-01 
3.05774533941000E-01 3.13515257889000E-01 3.21451939197000E-01 3.29589538549000E-01 
3.37933142210000E-01 3.46487965202000E-01 3.55259354570000E-01 3.64252792717000E-01 
3.73473900834000E-01 3.82928442415000E-01 3.92622326855000E-01 4.02561613148000E-01 
4.12752513672000E-01 4.23201398071000E-01 4.33914797238000E-01 4.44899407395000E-01 
4.56162094283000E-01 4.67709897447000E-01 4.79550034640000E-01 4.91689906332000E-01 
5.04137100340000E-01 5.16899396565000E-01 5.29984771856000E-01 5.43401405000000E-01 
5.57157681829000E-01 5.71262200464000E-01 5.85723776688000E-01 6.00551449458000E-01 
6.15754486550000E-01 6.31342390359000E-01 6.47324903831000E-01 6.63712016559000E-01 
6.80513971020000E-01 6.97741268983000E-01 7.15404678071000E-01 7.33515238488000E-01 
7.52084269925000E-01 7.71123378631000E-01 7.90644464669000E-01 8.10659729353000E-01 
8.31181682874000E-01 8.52223152122000E-01 8.73797288700000E-01 8.95917577146000E-01 
9.18597843359000E-01 9.41852263246000E-01 9.65695371574000E-01 9.90142071064000E-01 
1.01520764170000E+00 1.04090775027000E+00 1.06725846019000E+00 1.09427624151000E+00 
1.12197798122000E+00 1.15038099381000E+00 1.17950303209000E+00 1.20936229827000E+00 
1.23997745538000E+00 1.27136763888000E+00 1.30355246865000E+00 1.33655206128000E+00 
1.37038704256000E+00 1.40507856048000E+00 1.44064829835000E+00 1.47711848843000E+00 
1.51451192576000E+00 1.55285198246000E+00 1.59216262233000E+00 1.63246841577000E+00 
1.67379455524000E+00 1.71616687091000E+00 1.75961184685000E+00 1.80415663760000E+00 
1.84982908509000E+00 1.89665773610000E+00 1.94467186005000E+00 1.99390146734000E+00 
2.04437732806000E+00 2.09613099129000E+00 2.14919480474000E+00 2.20360193502000E+00 
2.25938638836000E+00 2.31658303186000E+00 2.37522761529000E+00 2.43535679341000E+00 
2.49700814892000E+00 2.56022021593000E+00 2.62503250403000E+00 2.69148552302000E+00 
2.75962080820000E+00 2.82948094633000E+00 2.90110960227000E+00 2.97455154628000E+00 
3.04985268195000E+00 3.12706007494000E+00 3.20622198239000E+00 3.28738788307000E+00 
3.37060850831000E+00 3.45593587371000E+00 3.54342331164000E+00 3.63312550462000E+00 
3.72509851941000E+00 3.81939984217000E+00 3.91608841427000E+00 4.01522466923000E+00 
4.11687057043000E+00 4.22108964988000E+00 4.32794704788000E+00 4.43750955378000E+00 
4.54984564773000E+00 4.66502554344000E+00 4.78312123209000E+00 4.90420652733000E+00 
5.02835711142000E+00 5.15565058250000E+00 5.28616650315000E+00 5.41998645006000E+00 
5.55719406505000E+00 5.69787510735000E+00 5.84211750720000E+00 5.99001142078000E+00 
6.14164928661000E+00 6.29712588328000E+00 6.45653838874000E+00 6.61998644099000E+00 
6.78757220039000E+00 6.95940041348000E+00 7.13557847849000E+00 7.31621651245000E+00 
7.50142742002000E+00 7.69132696403000E+00 7.88603383788000E+00 8.08566973972000E+00 
8.29035944847000E+00 8.50023090186000E+00 8.71541527640000E+00 8.93604706931000E+00 
9.16226418265000E+00 9.39420800948000E+00 9.63202352224000E+00 9.87585936337000E+00 
1.01258679382000E+01 1.03822055102000E+01 1.06450322988000E+01 1.09145125792000E+01 
1.11908147854000E+01 1.14741116152000E+01 1.17645801384000E+01 1.20624019073000E+01 
1.23677630702000E+01 1.26808544877000E+01 1.30018718522000E+01 1.33310158099000E+01 
1.36684920866000E+01 1.40145116160000E+01 1.43692906714000E+01 1.47330510013000E+01 
1.51060199679000E+01 1.54884306888000E+01 1.58805221832000E+01 1.62825395210000E+01 
1.66947339762000E+01 1.71173631837000E+01 1.75506913005000E+01 1.79949891709000E+01 
1.84505344953000E+01 1.89176120046000E+01 1.93965136373000E+01 1.98875387225000E+01 
2.03909941670000E+01 2.09071946467000E+01 2.14364628038000E+01 2.19791294481000E+01 
2.25355337638000E+01 2.31060235219000E+01 2.36909552970000E+01 2.42906946904000E+01 
2.49056165589000E+01 2.55361052486000E+01 2.61825548354000E+01 2.68453693715000E+01 
2.75249631374000E+01 2.82217609015000E+01 2.89361981849000E+01 2.96687215342000E+01 
3.04197888004000E+01 3.11898694250000E+01 3.19794447334000E+01 3.27890082359000E+01 
3.36190659360000E+01 3.44701366469000E+01 3.53427523154000E+01 3.62374583547000E+01 
3.71548139852000E+01 3.80953925840000E+01 3.90597820435000E+01 4.00485851384000E+01 
4.10624199027000E+01 4.21019200164000E+01 4.31677352007000E+01 4.42605316248000E+01 
4.53809923221000E+01 4.65298176171000E+01 4.77077255628000E+01 4.89154523901000E+01 
5.01537529676000E+01 5.14234012735000E+01 5.27251908793000E+01 5.40599354459000E+01 
5.54284692320000E+01 5.68316476159000E+01 5.82703476296000E+01 5.97454685076000E+01 
6.12579322485000E+01 6.28086841912000E+01 6.43986936062000E+01 6.60289543013000E+01 
6.77004852423000E+01 6.94143311905000E+01 7.11715633555000E+01 7.29732800645000E+01 
7.48206074492000E+01 7.67147001492000E+01 7.86567420343000E+01 8.06479469437000E+01 
8.26895594454000E+01 8.47828556136000E+01 8.69291438267000E+01 8.91297655845000E+01 
9.13860963473000E+01 9.36995463954000E+01 9.60715617103000E+01 9.85036248787000E+01 
1.00997256019000E+02 1.03554013733000E+02 1.06175496076000E+02 1.08863341561000E+02 
1.11619230178000E+02 1.14444884447000E+02 1.17342070495000E+02 1.20312599157000E+02 
1.23358327110000E+02 1.26481158034000E+02 1.29683043798000E+02 1.32965985687000E+02 
1.36332035645000E+02 1.39783297563000E+02 1.43321928593000E+02 1.46950140494000E+02 
1.50670201016000E+02 
</PP_R>
    <PP_RAB>
4.70901959788000E-09 4.82822899655000E-09 4.95045619552000E-09 5.07577759076000E-09 
5.20427151222000E-09 5.33601827280000E-09 5.47110021849000E-09 5.60960177992000E-09 
5.75160952508000E-09 5.89721221341000E-09 6.04650085136000E-09 6.19956874916000E-09 
6.35651157924000E-09 6.51742743599000E-09 6.68241689704000E-09 6.85158308618000E-09 
7.02503173779000E-09 7.20287126292000E-09 7.38521281706000E-09 7.57217036963000E-09 
7.76386077516000E-09 7.96040384642000E-09 8.16192242922000E-09 8.36854247922000E-09 
8.58039314070000E-09 8.79760682720000E-09 9.02031930436000E-09 9.24866977472000E-09 
9.48280096476000E-09 9.72285921409000E-09 9.96899456694000E-09 1.02213608659000E-08 
1.04801158481000E-08 1.07454212440000E-08 1.10174428778000E-08 1.12963507722000E-08 
1.15823192534000E-08 1.18755270613000E-08 1.21761574601000E-08 1.24843983538000E-08 
1.28004424028000E-08 1.31244871450000E-08 1.34567351189000E-08 1.37973939903000E-08 
1.41466766820000E-08 1.45048015073000E-08 1.48719923056000E-08 1.52484785833000E-08 
1.56344956564000E-08 1.60302847983000E-08 1.64360933900000E-08 1.68521750751000E-08 
1.72787899182000E-08 1.77162045675000E-08 1.81646924214000E-08 1.86245337993000E-08 
1.90960161172000E-08 1.95794340667000E-08 2.00750897999000E-08 2.05832931177000E-08 
2.11043616638000E-08 2.16386211229000E-08 2.21864054246000E-08 2.27480569520000E-08 
2.33239267554000E-08 2.39143747723000E-08 2.45197700519000E-08 2.51404909860000E-08 
2.57769255454000E-08 2.64294715223000E-08 2.70985367793000E-08 2.77845395039000E-08 
2.84879084702000E-08 2.92090833066000E-08 2.99485147709000E-08 3.07066650318000E-08 
3.14840079580000E-08 3.22810294141000E-08 3.30982275644000E-08 3.39361131843000E-08 
3.47952099797000E-08 3.56760549140000E-08 3.65791985440000E-08 3.75052053638000E-08 
3.84546541579000E-08 3.94281383626000E-08 4.04262664373000E-08 4.14496622445000E-08 
4.24989654399000E-08 4.35748318722000E-08 4.46779339929000E-08 4.58089612767000E-08 
4.69686206525000E-08 4.81576369452000E-08 4.93767533286000E-08 5.06267317903000E-08 
5.19083536073000E-08 5.32224198351000E-08 5.45697518078000E-08 5.59511916518000E-08 
5.73676028120000E-08 5.88198705914000E-08 6.03089027046000E-08 6.18356298453000E-08 
6.34010062675000E-08 6.50060103825000E-08 6.66516453702000E-08 6.83389398059000E-08 
7.00689483036000E-08 7.18427521749000E-08 7.36614601050000E-08 7.55262088456000E-08 
7.74381639253000E-08 7.93985203782000E-08 8.14085034911000E-08 8.34693695686000E-08 
8.55824067194000E-08 8.77489356602000E-08 8.99703105424000E-08 9.22479197974000E-08 
9.45831870052000E-08 9.69775717838000E-08 9.94325707017000E-08 1.01949718213000E-07 
1.04530587617000E-07 1.07176792041000E-07 1.09889985449000E-07 1.12671863675000E-07 
1.15524165484000E-07 1.18448673656000E-07 1.21447216106000E-07 1.24521667019000E-07 
1.27673948028000E-07 1.30906029410000E-07 1.34219931322000E-07 1.37617725060000E-07 
1.41101534356000E-07 1.44673536704000E-07 1.48335964723000E-07 1.52091107548000E-07 
1.55941312266000E-07 1.59888985381000E-07 1.63936594316000E-07 1.68086668960000E-07 
1.72341803243000E-07 1.76704656763000E-07 1.81177956447000E-07 1.85764498250000E-07 
1.90467148913000E-07 1.95288847744000E-07 2.00232608461000E-07 2.05301521077000E-07 
2.10498753827000E-07 2.15827555151000E-07 2.21291255722000E-07 2.26893270531000E-07 
2.32637101021000E-07 2.38526337272000E-07 2.44564660248000E-07 2.50755844098000E-07 
2.57103758514000E-07 2.63612371148000E-07 2.70285750095000E-07 2.77128066435000E-07 
2.84143596838000E-07 2.91336726238000E-07 2.98711950576000E-07 3.06273879607000E-07 
3.14027239782000E-07 3.21976877205000E-07 3.30127760658000E-07 3.38484984707000E-07 
3.47053772891000E-07 3.55839480980000E-07 3.64847600328000E-07 3.74083761304000E-07 
3.83553736807000E-07 3.93263445882000E-07 4.03218957413000E-07 4.13426493917000E-07 
4.23892435439000E-07 4.34623323531000E-07 4.45625865349000E-07 4.56906937839000E-07 
4.68473592039000E-07 4.80333057484000E-07 4.92492746726000E-07 5.04960259967000E-07 
5.17743389808000E-07 5.30850126122000E-07 5.44288661045000E-07 5.58067394100000E-07 
5.72194937442000E-07 5.86680121247000E-07 6.01531999225000E-07 6.16759854285000E-07 
6.32373204331000E-07 6.48381808215000E-07 6.64795671836000E-07 6.81625054392000E-07 
6.98880474797000E-07 7.16572718249000E-07 7.34712842976000E-07 7.53312187146000E-07 
7.72382375956000E-07 7.91935328895000E-07 8.11983267193000E-07 8.32538721466000E-07 
8.53614539541000E-07 8.75223894491000E-07 8.97380292866000E-07 9.20097583136000E-07 
9.43389964347000E-07 9.67271994996000E-07 9.91758602130000E-07 1.01686509067000E-06 
1.04260715300000E-06 1.06900087874000E-06 1.09606276483000E-06 1.12380972582000E-06 
1.15225910447000E-06 1.18142868258000E-06 1.21133669207000E-06 1.24200182643000E-06 
1.27344325235000E-06 1.30568062177000E-06 1.33873408407000E-06 1.37262429876000E-06 
1.40737244832000E-06 1.44300025147000E-06 1.47952997676000E-06 1.51698445644000E-06 
1.55538710078000E-06 1.59476191270000E-06 1.63513350273000E-06 1.67652710443000E-06 
1.71896859014000E-06 1.76248448717000E-06 1.80710199439000E-06 1.85284899918000E-06 
1.89975409491000E-06 1.94784659878000E-06 1.99715657020000E-06 2.04771482948000E-06 
2.09955297718000E-06 2.15270341385000E-06 2.20719936022000E-06 2.26307487805000E-06 
2.32036489134000E-06 2.37910520823000E-06 2.43933254331000E-06 2.50108454065000E-06 
2.56439979724000E-06 2.62931788718000E-06 2.69587938639000E-06 2.76412589797000E-06 
2.83410007822000E-06 2.90584566328000E-06 2.97940749647000E-06 3.05483155634000E-06 
3.13216498537000E-06 3.21145611948000E-06 3.29275451820000E-06 3.37611099569000E-06 
3.46157765245000E-06 3.54920790792000E-06 3.63905653388000E-06 3.73117968863000E-06 
3.82563495214000E-06 3.92248136204000E-06 4.02177945047000E-06 4.12359128199000E-06 
4.22798049228000E-06 4.33501232802000E-06 4.44475368758000E-06 4.55727316288000E-06 
4.67264108226000E-06 4.79092955443000E-06 4.91221251352000E-06 5.03656576534000E-06 
5.16406703472000E-06 5.29479601410000E-06 5.42883441335000E-06 5.56626601083000E-06 
5.70717670577000E-06 5.85165457193000E-06 5.99978991268000E-06 6.15167531744000E-06 
6.30740571953000E-06 6.46707845552000E-06 6.63079332606000E-06 6.79865265828000E-06 
6.97076136973000E-06 7.14722703395000E-06 7.32815994773000E-06 7.51367320003000E-06 
7.70388274267000E-06 7.89890746281000E-06 8.09886925724000E-06 8.30389310860000E-06 
8.51410716347000E-06 8.72964281247000E-06 8.95063477240000E-06 9.17722117043000E-06 
9.40954363044000E-06 9.64774736153000E-06 9.89198124877000E-06 1.01423979463000E-05 
1.03991539727000E-05 1.06624098089000E-05 1.09323299983000E-05 1.12090832498000E-05 
1.14928425433000E-05 1.17837852374000E-05 1.20820931809000E-05 1.23879528260000E-05 
1.27015553448000E-05 1.30230967492000E-05 1.33527780130000E-05 1.36908051978000E-05 
1.40373895814000E-05 1.43927477905000E-05 1.47571019355000E-05 1.51306797496000E-05 
1.55137147311000E-05 1.59064462893000E-05 1.63091198942000E-05 1.67219872300000E-05 
1.71453063521000E-05 1.75793418489000E-05 1.80243650065000E-05 1.84806539790000E-05 
1.89484939619000E-05 1.94281773703000E-05 1.99200040220000E-05 2.04242813246000E-05 
2.09413244680000E-05 2.14714566208000E-05 2.20150091330000E-05 2.25723217426000E-05 
2.31437427880000E-05 2.37296294261000E-05 2.43303478550000E-05 2.49462735433000E-05 
2.55777914647000E-05 2.62252963384000E-05 2.68891928760000E-05 2.75698960345000E-05 
2.82678312754000E-05 2.89834348311000E-05 2.97171539771000E-05 3.04694473117000E-05 
3.12407850427000E-05 3.20316492813000E-05 3.28425343434000E-05 3.36739470587000E-05 
3.45264070870000E-05 3.54004472437000E-05 3.62966138323000E-05 3.72154669861000E-05 
3.81575810182000E-05 3.91235447806000E-05 4.01139620321000E-05 4.11294518156000E-05 
4.21706488454000E-05 4.32382039035000E-05 4.43327842466000E-05 4.54550740230000E-05 
4.66057747003000E-05 4.77856055040000E-05 4.89953038667000E-05 5.02356258892000E-05 
5.15073468132000E-05 5.28112615057000E-05 5.41481849557000E-05 5.55189527841000E-05 
5.69244217652000E-05 5.83654703630000E-05 5.98429992797000E-05 6.13579320190000E-05 
6.29112154632000E-05 6.45038204650000E-05 6.61367424543000E-05 6.78110020606000E-05 
6.95276457507000E-05 7.12877464826000E-05 7.30924043768000E-05 7.49427474030000E-05 
7.68399320859000E-05 7.87851442278000E-05 8.07795996494000E-05 8.28245449505000E-05 
8.49212582883000E-05 8.70710501769000E-05 8.92752643063000E-05 9.15352783821000E-05 
9.38525049866000E-05 9.62283924618000E-05 9.86644258149000E-05 1.01162127646000E-04 
1.03723059100000E-04 1.06348820842000E-04 1.09041054059000E-04 1.11801441485000E-04 
1.14631708451000E-04 1.17533623966000E-04 1.20509001823000E-04 1.23559701728000E-04 
1.26687630469000E-04 1.29894743103000E-04 1.33183044181000E-04 1.36554588996000E-04 
1.40011484874000E-04 1.43555892489000E-04 1.47190027209000E-04 1.50916160488000E-04 
1.54736621280000E-04 1.58653797497000E-04 1.62670137502000E-04 1.66788151639000E-04 
1.71010413800000E-04 1.75339563036000E-04 1.79778305207000E-04 1.84329414671000E-04 
1.88995736020000E-04 1.93780185856000E-04 1.98685754616000E-04 2.03715508440000E-04 
2.08872591089000E-04 2.14160225907000E-04 2.19581717837000E-04 2.25140455489000E-04 
2.30839913255000E-04 2.36683653481000E-04 2.42675328695000E-04 2.48818683889000E-04 
2.55117558860000E-04 2.61575890611000E-04 2.68197715808000E-04 2.74987173308000E-04 
2.81948506743000E-04 2.89086067173000E-04 2.96404315805000E-04 3.03907826784000E-04 
3.11601290047000E-04 3.19489514260000E-04 3.27577429820000E-04 3.35870091937000E-04 
3.44372683795000E-04 3.53090519791000E-04 3.62029048855000E-04 3.71193857860000E-04 
3.80590675110000E-04 3.90225373921000E-04 4.00103976293000E-04 4.10232656675000E-04 
4.20617745822000E-04 4.31265734752000E-04 4.42183278806000E-04 4.53377201803000E-04 
4.64854500309000E-04 4.76622348011000E-04 4.88688100195000E-04 5.01059298351000E-04 
5.13743674878000E-04 5.26749157927000E-04 5.40083876346000E-04 5.53756164769000E-04 
5.67774568821000E-04 5.82147850461000E-04 5.96884993459000E-04 6.11995209007000E-04 
6.27487941484000E-04 6.43372874350000E-04 6.59659936206000E-04 6.76359306997000E-04 
6.93481424371000E-04 7.11036990210000E-04 7.29036977315000E-04 7.47492636262000E-04 
7.66415502441000E-04 7.85817403257000E-04 8.05710465530000E-04 8.26107123073000E-04 
8.47020124460000E-04 8.68462540997000E-04 8.90447774893000E-04 9.12989567635000E-04 
9.36102008578000E-04 9.59799543748000E-04 9.84096984877000E-04 1.00900951866000E-03 
1.03455271623000E-03 1.06074254293000E-03 1.08759536825000E-03 1.11512797608000E-03 
1.14335757520000E-03 1.17230181001000E-03 1.20197877163000E-03 1.23240700910000E-03 
1.26360554107000E-03 1.29559386764000E-03 1.32839198255000E-03 1.36202038569000E-03 
1.39650009591000E-03 1.43185266415000E-03 1.46810018691000E-03 1.50526532009000E-03 
1.54337129309000E-03 1.58244192339000E-03 1.62250163140000E-03 1.66357545575000E-03 
1.70568906891000E-03 1.74886879327000E-03 1.79314161755000E-03 1.83853521372000E-03 
1.88507795424000E-03 1.93279892985000E-03 1.98172796771000E-03 2.03189565006000E-03 
2.08333333333000E-03 2.13607316776000E-03 2.19014811745000E-03 2.24559198101000E-03 
2.30243941266000E-03 2.36072594389000E-03 2.42048800568000E-03 2.48176295128000E-03 
2.54458907950000E-03 2.60900565873000E-03 2.67505295143000E-03 2.74277223931000E-03 
2.81220584912000E-03 2.88339717913000E-03 2.95639072624000E-03 3.03123211379000E-03 
3.10796812009000E-03 3.18664670763000E-03 3.26731705310000E-03 3.35002957810000E-03 
3.43483598063000E-03 3.52178926746000E-03 3.61094378722000E-03 3.70235526440000E-03 