<?xml version="1.0" encoding="UTF-8"?>
<UPF version="2.0.1">
  <PP_INFO><![CDATA[
Generated using "atomic" code by A. Dal Corso  v.6.3MaX
Author: ADC
Generation date: 22Oct2025
Pseudopotential type: PAW
Element: Ne
Functional:  SLA  PW   PSX  PSC
    Suggested minimum cutoff for wavefunctions:  54. Ry
    Suggested minimum cutoff for charge density: 264. Ry
    The Pseudo was generated with a Scalar-Relativistic Calculation
    Local Potential by smoothing AE potential with Bessel fncs, cutoff radius:   1.0000
    Pseudopotential contains additional information for GIPAW reconstruction.
    Valence configuration:
    nl pn  l   occ       Rcut    Rcut US       E pseu
    2S  1  0  2.00      1.000      1.400    -2.660674
    2P  2  1  6.00      1.000      1.400    -0.975365
    Generation configuration:
    2S  1  0  2.00      1.000      1.400    -2.660674
    2S  1  0  0.00      1.000      1.400     0.400000
    2P  2  1  6.00      1.000      1.400    -0.975362
    2P  2  1  0.00      1.000      1.400     0.050000
    Pseudization used: troullier-martins
]]>
    <PP_INPUTFILE><![CDATA[
 &input
   title='Ne',
   zed=10.,
   rel=1,
   config='[He] 2s2 2p6',
   iswitch=3,
   dft='PBESOL'
 /
 &inputp
   lpaw=.true.,
   pseudotype=3,
   file_pseudopw='Ne.paw.pbesol.z_8.ld1.psl.v1.0.0-high.upf',
   author='ADC',
   lloc=-1,
   rcloc=1.0
   which_augfun='PSQ',
   rmatch_augfun_nc=.true.,
   nlcc=.true.,
   new_core_ps=.true.,
   rcore=0.8,
   tm=.true.
 /
4
2S  1  0  2.00  0.00  1.00  1.40  0.0
2S  1  0  0.00  0.40  1.00  1.40  0.0
2P  2  1  6.00  0.00  1.00  1.40  0.0
2P  2  1  0.00  0.05  1.00  1.40  0.0
]]></PP_INPUTFILE>
  </PP_INFO>
  <!--
 END OF HUMAN READABLE SECTION 
-->
  <PP_HEADER generated="Generated using &quot;atomic&quot; code by A. Dal Corso  v.6.3MaX" author="ADC" date="22Oct2025" comment="" element="Ne" pseudo_type="PAW" relativistic="scalar" is_ultrasoft="true" is_paw="true" is_coulomb="false" has_so="false" has_wfc="true" has_gipaw="true" paw_as_gipaw="true" core_correction="true" functional=" SLA  PW   PSX  PSC" z_valence="8.000000000000e0" total_psenergy="-8.132761294896e1" wfc_cutoff="5.376952349391e1" rho_cutoff="2.640573328428e2" l_max="1" l_max_rho="2" l_local="-1" mesh_size="1113" number_of_wfc="2" number_of_proj="4"/>
  <PP_MESH dx="1.250000000000e-2" mesh="1113" xmin="-7.000000000000e0" rmax="1.000000000000e2" zmesh="1.000000000000e1">
    <PP_R>
      9.118819655545161e-5 9.233520286690222e-5 9.349663674165821e-5 9.467267965612539e-5
      9.586351536940196e-5 9.706932995199089e-5 9.829031181487386e-5 9.952665173895113e-5
      1.007785429048511e-4 1.020461809231155e-4 1.033297638647637e-4 1.046294922922419e-4
      1.059455692907610e-4 1.072782005000297e-4 1.086275941463858e-4 1.099939610753318e-4
      1.113775147844803e-4 1.127784714569132e-4 1.141970499949607e-4 1.156334720544058e-4
      1.170879620791174e-4 1.185607473361213e-4 1.200520579511101e-4 1.215621269444015e-4
      1.230911902673481e-4 1.246394868392049e-4 1.262072585844614e-4 1.277947504706424e-4
      1.294022105465848e-4 1.310298899811960e-4 1.326780431026992e-4 1.343469274383727e-4
      1.360368037547894e-4 1.377479360985617e-4 1.394805918375999e-4 1.412350417028882e-4
      1.430115598307874e-4 1.448104238058696e-4 1.466319147042903e-4 1.484763171377087e-4
      1.503439192977572e-4 1.522350130010732e-4 1.541498937348950e-4 1.560888607032332e-4
      1.580522168736217e-4 1.600402690244564e-4 1.620533277929307e-4 1.640917077235726e-4
      1.661557273173934e-4 1.682457090816541e-4 1.703619795802574e-4 1.725048694847742e-4
      1.746747136261120e-4 1.768718510468321e-4 1.790966250541270e-4 1.813493832734615e-4
      1.836304777028907e-4 1.859402647680601e-4 1.882791053778977e-4 1.906473649810076e-4
      1.930454136227709e-4 1.954736260031667e-4 1.979323815353197e-4 2.004220644047839e-4
      2.029430636295734e-4 2.054957731209459e-4 2.080805917449529e-4 2.106979233847634e-4
      2.133481770037708e-4 2.160317667094954e-4 2.187491118182885e-4 2.215006369208517e-4
      2.242867719485803e-4 2.271079522407407e-4 2.299646186124936e-4 2.328572174237714e-4
      2.357862006490233e-4 2.387520259478373e-4 2.417551567364503e-4 2.447960622601583e-4
      2.478752176666358e-4 2.509931040801799e-4 2.541502086768859e-4 2.573470247607700e-4
      2.605840518408498e-4 2.638617957091922e-4 2.671807685199450e-4 2.705414888693626e-4
      2.739444818768369e-4 2.773902792669488e-4 2.808794194525513e-4 2.844124476188967e-4
      2.879899158088243e-4 2.916123830090168e-4 2.952804152373447e-4 2.989945856313060e-4
      3.027554745375815e-4 3.065636696027143e-4 3.104197658649309e-4 3.143243658471181e-4
      3.182780796509666e-4 3.222815250523026e-4 3.263353275976149e-4 3.304401207017982e-4
      3.345965457471272e-4 3.388052521834712e-4 3.430668976297734e-4 3.473821479768053e-4
      3.517516774912128e-4 3.561761689208730e-4 3.606563136015731e-4 3.651928115650343e-4
      3.697863716482932e-4 3.744377116044580e-4 3.791475582148608e-4 3.839166474026163e-4
      3.887457243476131e-4 3.936355436029483e-4 3.985868692128291e-4 4.036004748319558e-4
      4.086771438464067e-4 4.138176694960437e-4 4.190228549984579e-4 4.242935136744740e-4
      4.296304690752340e-4 4.350345551108769e-4 4.405066161808406e-4 4.460475073058002e-4
      4.516580942612666e-4 4.573392537128673e-4 4.630918733533246e-4 4.689168520411611e-4
      4.748150999411477e-4 4.807875386665186e-4 4.868351014229763e-4 4.929587331545051e-4
      4.991593906910218e-4 5.054380428978814e-4 5.117956708272652e-4 5.182332678714725e-4
      5.247518399181384e-4 5.313524055074076e-4 5.380359959910820e-4 5.448036556937725e-4
      5.516564420760771e-4 5.585954258998099e-4 5.656216913953108e-4 5.727363364308586e-4
      5.799404726842141e-4 5.872352258163252e-4 5.946217356472094e-4 6.021011563340560e-4
      6.096746565515638e-4 6.173434196745501e-4 6.251086439628562e-4 6.329715427485747e-4
      6.409333446256383e-4 6.489952936417886e-4 6.571586494929614e-4 6.654246877201174e-4
      6.737946999085467e-4 6.822699938896825e-4 6.908518939454532e-4 6.995417410152011e-4
      7.083408929052125e-4 7.172507245008699e-4 7.262726279814890e-4 7.354080130378437e-4
      7.446583070924337e-4 7.540249555225276e-4 7.635094218859962e-4 7.731131881500071e-4
      7.828377549225774e-4 7.926846416870495e-4 8.026553870395162e-4 8.127515489292211e-4
      8.229747049020030e-4 8.333264523467809e-4 8.438084087451530e-4 8.544222119241345e-4
      8.651695203120633e-4 8.760520131977428e-4 8.870713909928259e-4 8.982293754975114e-4
      9.095277101695824e-4 9.209681603968139e-4 9.325525137728327e-4 9.442825803764212e-4
      9.561601930543505e-4 9.681872077077692e-4 9.803655035821828e-4 9.926969835611011e-4
      1.005183574463359e-3 1.017827227344187e-3 1.030629917800075e-3 1.043593646277450e-3
      1.056720438385266e-3 1.070012345211493e-3 1.083471443643615e-3 1.097099836693149e-3
      1.110899653824231e-3 1.124873051286366e-3 1.139022212451338e-3 1.153349348154362e-3
      1.167856697039545e-3 1.182546525909662e-3 1.197421130080362e-3 1.212482833738810e-3
      1.227733990306844e-3 1.243176982808709e-3 1.258814224243400e-3 1.274648157961707e-3
      1.290681258047987e-3 1.306916029706748e-3 1.323355009654094e-3 1.340000766514083e-3
      1.356855901220094e-3 1.373923047421215e-3 1.391204871893762e-3 1.408704074957974e-3
      1.426423390899926e-3 1.444365588398788e-3 1.462533470959422e-3 1.480929877350440e-3
      1.499557682047772e-3 1.518419795683795e-3 1.537519165502143e-3 1.556858775818209e-3
      1.576441648485449e-3 1.596270843367562e-3 1.616349458816587e-3 1.636680632157043e-3
      1.657267540176126e-3 1.678113399620096e-3 1.699221467696908e-3 1.720595042585138e-3
      1.742237463949352e-3 1.764152113461916e-3 1.786342415331403e-3 1.808811836837631e-3
      1.831563888873418e-3 1.854602126493188e-3 1.877930149468441e-3 1.901551602850225e-3
      1.925470177538693e-3 1.949689610859799e-3 1.974213687149278e-3 1.999046238343943e-3
      2.024191144580439e-3 2.049652334801526e-3 2.075433787369974e-3 2.101539530690203e-3
      2.127973643837718e-3 2.154740257196477e-3 2.181843553104277e-3 2.209287766506244e-3
      2.237077185616560e-3 2.265216152588497e-3 2.293709064192893e-3 2.322560372505157e-3
      2.351774585600911e-3 2.381356268260388e-3 2.411310042681687e-3 2.441640589203003e-3
      2.472352647033940e-3 2.503451014996015e-3 2.534940552272494e-3 2.566826179167643e-3
      2.599112877875535e-3 2.631805693258531e-3 2.664909733635549e-3 2.698430171580248e-3
      2.732372244729258e-3 2.766741256600558e-3 2.801542577422182e-3 2.836781644971309e-3
      2.872463965423944e-3 2.908595114215248e-3 2.945180736910729e-3 2.982226550088371e-3
      3.019738342231850e-3 3.057721974635009e-3 3.096183382317690e-3 3.135128574953089e-3
      3.174563637806795e-3 3.214494732687607e-3 3.254928098910343e-3 3.295870054270736e-3
      3.337326996032608e-3 3.379305401927456e-3 3.421811831166603e-3 3.464852925466102e-3
      3.508435410084504e-3 3.552566094873697e-3 3.597251875342967e-3 3.642499733736424e-3
      3.688316740124002e-3 3.734710053506162e-3 3.781686922932508e-3 3.829254688634466e-3
      3.877420783172201e-3 3.926192732595982e-3 3.975578157622132e-3 4.025584774823786e-3
      4.076220397836622e-3 4.127492938579755e-3 4.179410408491991e-3 4.231980919783632e-3
      4.285212686704018e-3 4.339114026825037e-3 4.393693362340742e-3 4.448959221383352e-3
      4.504920239355782e-3 4.561585160280941e-3 4.618962838168012e-3 4.677062238395897e-3
      4.735892439114092e-3 4.795462632661147e-3 4.855782127000997e-3 4.916860347177359e-3
      4.978706836786396e-3 5.041331259467938e-3 5.104743400415441e-3 5.168953167904942e-3
      5.233970594843238e-3 5.299805840335580e-3 5.366469191273014e-3 5.433971063939749e-3
      5.502322005640726e-3 5.571532696349641e-3 5.641613950377735e-3 5.712576718063529e-3
      5.784432087483848e-3 5.857191286186357e-3 5.930865682943872e-3 6.005466789530795e-3
      6.081006262521798e-3 6.157495905113224e-3 6.234947668967346e-3 6.313373656079837e-3
      6.392786120670757e-3 6.473197471099255e-3 6.554620271802436e-3 6.637067245258565e-3
      6.720551273974975e-3 6.805085402501020e-3 6.890682839466258e-3 6.977356959644366e-3
      7.065121306042963e-3 7.153989592019721e-3 7.243975703425145e-3 7.335093700772212e-3
      7.427357821433390e-3 7.520782481865242e-3 7.615382279861032e-3 7.711171996831672e-3
      7.808166600115317e-3 7.906381245316068e-3 8.005831278672060e-3 8.106532239453323e-3
      8.208499862389878e-3 8.311750080130256e-3 8.416299025731043e-3 8.522163035177687e-3
      8.629358649937050e-3 8.737902619542037e-3 8.847811904208731e-3 8.959103677486471e-3
      9.071795328941256e-3 9.185904466872890e-3 9.301448921066349e-3 9.418446745577668e-3
      9.536916221554964e-3 9.656875860094887e-3 9.778344405135005e-3 9.901340836382630e-3
      1.002588437228038e-2 1.015199447300911e-2 1.027969084352864e-2 1.040899343665666e-2
      1.053992245618643e-2 1.067249836004362e-2 1.080674186348293e-2 1.094267394232490e-2
      1.108031583623340e-2 1.121968905203437e-2 1.136081536707638e-2 1.150371683263324e-2
      1.164841577734970e-2 1.179493481073026e-2 1.194329682667196e-2 1.209352500704167e-2
      1.224564282529820e-2 1.239967405016013e-2 1.255564274931973e-2 1.271357329320356e-2
      1.287349035878042e-2 1.303541893341717e-2 1.319938431878303e-2 1.336541213480305e-2
      1.353352832366127e-2 1.370375915385425e-2 1.387613122429553e-2 1.405067146847182e-2
      1.422740715865137e-2 1.440636591014533e-2 1.458757568562274e-2 1.477106479947969e-2
      1.495686192226351e-2 1.514499608515267e-2 1.533549668449285e-2 1.552839348639030e-2
      1.572371663136277e-2 1.592149663904904e-2 1.612176441297769e-2 1.632455124539584e-2
      1.652988882215866e-2 1.673780922768026e-2 1.694834494994702e-2 1.716152888559388e-2
      1.737739434504451e-2 1.759597505771615e-2 1.781730517728985e-2 1.804141928704709e-2
      1.826835240527347e-2 1.849813999073043e-2 1.873081794819571e-2 1.896642263407353e-2
      1.920499086207542e-2 1.944655990897237e-2 1.969116752041941e-2 1.993885191685352e-2
      2.018965179946555e-2 2.044360635624741e-2 2.070075526811528e-2 2.096113871510978e-2
      2.122479738267431e-2 2.149177246801206e-2 2.176210568652330e-2 2.203583927832340e-2
      2.231301601484298e-2 2.259367920551109e-2 2.287787270452225e-2 2.316564091768889e-2
      2.345702880937978e-2 2.375208190954581e-2 2.405084632083422e-2 2.435336872579208e-2
      2.465969639416066e-2 2.496987719026137e-2 2.528395958047465e-2 2.560199264081301e-2
      2.592402606458916e-2 2.625011017018074e-2 2.658029590889268e-2 2.691463487291839e-2
      2.725317930340126e-2 2.759598209859732e-2 2.794309682214075e-2 2.829457771141330e-2
      2.865047968601901e-2 2.901085835636554e-2 2.937577003235329e-2 2.974527173217407e-2
      3.011942119122023e-2 3.049827687110593e-2 3.088189796880199e-2 3.127034442588539e-2
      3.166367693790534e-2 3.206195696386709e-2 3.246524673583497e-2 3.287360926865641e-2
      3.328710836980797e-2 3.370580864936545e-2 3.412977553009939e-2 3.455907525769746e-2
      3.499377491111554e-2 3.543394241305888e-2 3.587964654059518e-2 3.633095693590115e-2
      3.678794411714423e-2 3.725067948950130e-2 3.771923535631570e-2 3.819368493039491e-2
      3.867410234545015e-2 3.916056266767990e-2 3.965314190749929e-2 4.015191703141668e-2
      4.065696597405993e-2 4.116836765035387e-2 4.168620196785084e-2 4.221054983921656e-2
      4.274149319487268e-2 4.327911499579875e-2 4.382349924649496e-2 4.437473100810799e-2
      4.493289641172217e-2 4.549808267181737e-2 4.607037809989661e-2 4.664987211828487e-2
      4.723665527410147e-2 4.783081925340841e-2 4.843245689553626e-2 4.904166220759064e-2
      4.965853037914099e-2 5.028315779709409e-2 5.091564206075493e-2 5.155608199707643e-2
      5.220457767610164e-2 5.286123042659977e-2 5.352614285189903e-2 5.419941884591872e-2
      5.488116360940266e-2 5.557148366635717e-2 5.627048688069562e-2 5.697828247309230e-2
      5.769498103804867e-2 5.842069456117360e-2 5.915553643668154e-2 5.989962148511058e-2
      6.065306597126334e-2 6.141598762237379e-2 6.218850564650204e-2 6.297074075116104e-2
      6.376281516217739e-2 6.456485264278920e-2 6.537697851298474e-2 6.619931966908342e-2
      6.703200460356396e-2 6.787516342514149e-2 6.872892787909723e-2 6.959343136786421e-2
      7.046880897187137e-2 7.135519747065029e-2 7.225273536420726e-2 7.316156289466418e-2
      7.408182206817180e-2 7.501365667709821e-2 7.595721232249688e-2 7.691263643685710e-2
      7.788007830714049e-2 7.885968909810767e-2 7.985162187593772e-2 8.085603163214529e-2
      8.187307530779824e-2 8.290291181804005e-2 8.394570207692075e-2 8.500160902253985e-2
      8.607079764250582e-2 8.715343499971585e-2 8.824969025845954e-2 8.935973471085157e-2
      9.048374180359598e-2 9.162188716508782e-2 9.277434863285537e-2 9.394130628134757e-2
      9.512294245007141e-2 9.631944177208220e-2 9.753099120283332e-2 9.875778004938820e-2
      1.000000000000000e-1 1.012578451540635e-1 1.025315120524429e-1 1.038211997081826e-1
      1.051271096376025e-1 1.064494458917859e-1 1.077884150884632e-1 1.091442264442952e-1
      1.105170918075648e-1 1.119072256912781e-1 1.133148453066826e-1 1.147401705972072e-1
      1.161834242728284e-1 1.176448318448691e-1 1.191246216612359e-1 1.206230249420981e-1
      1.221402758160170e-1 1.236766113565285e-1 1.252322716191865e-1 1.268074996790720e-1
      1.284025416687741e-1 1.300176468168491e-1 1.316530674867622e-1 1.333090592163204e-1
      1.349858807576004e-1 1.366837941173796e-1 1.384030645980752e-1 1.401439608391974e-1
      1.419067548593258e-1 1.436917220986125e-1 1.454991414618201e-1 1.473292953619016e-1
      1.491824697641271e-1 1.510589542307673e-1 1.529590419663380e-1 1.548830298634133e-1
      1.568312185490169e-1 1.588039124315944e-1 1.608014197485784e-1 1.628240526145511e-1
      1.648721270700128e-1 1.669459631307643e-1 1.690458848379092e-1 1.711722203084865e-1
      1.733253017867396e-1 1.755054656960298e-1 1.777130526914039e-1 1.799484077128209e-1
      1.822118800390510e-1 1.845038233422501e-1 1.868245957432222e-1 1.891745598673770e-1
      1.915540829013897e-1 1.939635366505755e-1 1.964032975969848e-1 1.988737469582292e-1
      2.013752707470477e-1 2.039082598316216e-1 2.064731099966488e-1 2.090702220051857e-1
      2.117000016612675e-1 2.143628598733160e-1 2.170592127183443e-1 2.197894815069703e-1
      2.225540928492469e-1 2.253534787213209e-1 2.281880765329304e-1 2.310583291957505e-1
      2.339646851925992e-1 2.369075986475142e-1 2.398875293967098e-1 2.429049430604289e-1
      2.459603111156951e-1 2.490541109699832e-1 2.521868260358150e-1 2.553589458062927e-1
      2.585709659315847e-1 2.618233882963702e-1 2.651167210982608e-1 2.684514789272072e-1
      2.718281828459045e-1 2.752473604712107e-1 2.787095460565852e-1 2.822152805755699e-1
      2.857651118063166e-1 2.893595944171761e-1 2.929992900533705e-1 2.966847674247468e-1
      3.004166023946432e-1 3.041953780698666e-1 3.080216848918031e-1 3.118961207286795e-1
      3.158192909689769e-1 3.197918086160275e-1 3.238142943837963e-1 3.278873767938673e-1
      3.320116922736551e-1 3.361878852558430e-1 3.404166082790818e-1 3.446985220899477e-1
      3.490342957461841e-1 3.534246067212473e-1 3.578701410101580e-1 3.623715932366941e-1
      3.669296667619247e-1 3.715450737941104e-1 3.762185354999914e-1 3.809507821174662e-1
      3.857425530696973e-1 3.905945970806455e-1 3.955076722920578e-1 4.004825463819329e-1
      4.055199966844676e-1 4.106208103115211e-1 4.157857842756011e-1 4.210157256143960e-1
      4.263114515168822e-1 4.316737894510045e-1 4.371035772929757e-1 4.426016634581938e-1
      4.481689070338065e-1 4.538061779129507e-1 4.595143569306690e-1 4.652943360015469e-1
      4.711470182590745e-1 4.770733181967603e-1 4.830741618110284e-1 4.891504867459006e-1
      4.953032424395113e-1 5.015333902724563e-1 5.078419037180081e-1 5.142297684942292e-1
      5.206979827179850e-1 5.272475570609090e-1 5.338795149073180e-1 5.405948925141166e-1
      5.473947391727205e-1 5.542801173730024e-1 5.612521029693155e-1 5.683117853485948e-1
      5.754602676005732e-1 5.826986666901480e-1 5.900281136319018e-1 5.974497536668322e-1
      6.049647464412951e-1 6.125742661881986e-1 6.202795019104872e-1 6.280816575669165e-1
      6.359819522601829e-1 6.439816204274064e-1 6.520819120330112e-1 6.602840927640434e-1
      6.685894442279272e-1 6.769992641527274e-1 6.855148665899183e-1 6.941375821197036e-1
      7.028687580589301e-1 7.117097586715997e-1 7.206619653820465e-1 7.297267769907837e-1
      7.389056098930650e-1 7.481998983002086e-1 7.576110944636849e-1 7.671406689020428e-1
      7.767901106306779e-1 7.865609273944891e-1 7.964546459034780e-1 8.064728120712875e-1
      8.166169912567646e-1 8.268887685085474e-1 8.372897488127265e-1 8.478215573436382e-1
      8.584858397177896e-1 8.692842622510002e-1 8.802185122187613e-1 8.912902981198737e-1
      9.025013499434131e-1 9.138534194390328e-1 9.253482803906889e-1 9.369877288937936e-1
      9.487735836358526e-1 9.607076861806512e-1 9.727919012559887e-1 9.850281170450581e-1
      9.974182454814727e-1 1.009964222548005e0 1.022668008579101e0 1.035531588567169e0
      1.048556972472757e0 1.061746195538601e0 1.075101318607635e0 1.088624428445015e0
      1.102317638064160e0 1.116183087056936e0 1.130222941927959e0 1.144439396433112e0
      1.158834671922340e0 1.173411017686721e0 1.188170711309940e0 1.203116059024154e0
      1.218249396070347e0 1.233573087063227e0 1.249089526360681e0 1.264801138437922e0
      1.280710378266304e0 1.296819731696913e0 1.313131715849003e0 1.329648879503279e0
      1.346373803500171e0 1.363309101143076e0 1.380457418606710e0 1.397821435350565e0
      1.415403864537581e0 1.433207453458095e0 1.451234983959093e0 1.469489272878894e0
      1.487973172487285e0 1.506689570931179e0 1.525641392685918e0 1.544831599012203e0
      1.564263188418817e0 1.583939197131143e0 1.603862699565568e0 1.624036808809886e0
      1.644464677109706e0 1.665149496361015e0 1.686094498608905e0 1.707302956552586e0
      1.728778184056766e0 1.750523536669429e0 1.772542412146164e0 1.794838250981066e0
      1.817414536944307e0 1.840274797626507e0 1.863422604989902e0 1.886861575926488e0
      1.910595372823167e0 1.934627704133982e0 1.958962324959602e0 1.983603037634033e0
      2.008553692318767e0 2.033818187604363e0 2.059400471119603e0 2.085304540148344e0
      2.111534442254063e0 2.138094275912334e0 2.164988191151207e0 2.192220390199647e0
      2.219795128144166e0 2.247716713593662e0 2.275989509352673e0 2.304617933103060e0
      2.333606458094272e0 2.362959613842325e0 2.392681986837515e0 2.422778221261098e0
      2.453253019710937e0 2.484111143936285e0 2.515357415581840e0 2.546996716941110e0
      2.579033991719306e0 2.611474245805799e0 2.644322548056280e0 2.677584031084816e0
      2.711263892065791e0 2.745367393546010e0 2.779899864266969e0 2.814866699997466e0
      2.850273364376732e0 2.886125389768103e0 2.922428378123494e0 2.959188001858698e0
      2.996410004739703e0 3.034100202780196e0 3.072264485150293e0 3.110908815096766e0
      3.150039230874797e0 3.189661846691450e0 3.229782853661072e0 3.270408520772617e0
      3.311545195869231e0 3.353199306640096e0 3.395377361624755e0 3.438085951230123e0
      3.481331748760205e0 3.525121511458854e0 3.569462081565591e0 3.614360387384694e0
      3.659823444367804e0 3.705858356210059e0 3.752472315960100e0 3.799672607143980e0
      3.847466604903214e0 3.895861777147202e0 3.944865685720055e0 3.994485987582193e0
      4.044730436006743e0 4.095606881790980e0 4.147123274483081e0 4.199287663624201e0
      4.252108200006278e0 4.305593136945596e0 4.359750831572351e0 4.414589746136529e0
      4.470118449330085e0 4.526345617625877e0 4.583280036633352e0 4.640930602471298e0
      4.699306323157935e0 4.758416320018370e0 4.818269829109882e0 4.878876202665046e0
      4.940244910553019e0 5.002385541759281e0 5.065307805883867e0 5.129021534658571e0
      5.193536683483149e0 5.258863332980845e0 5.325011690573570e0 5.391992092076757e0
      5.459815003314423e0 5.528491021754449e0 5.598030878164415e0 5.668445438288387e0
      5.739745704544624e0 5.811942817744798e0 5.885048058834746e0 5.959072850657099e0
      6.034028759736206e0 6.109927498085337e0 6.186780925036788e0 6.264601049094892e0
      6.343400029812335e0 6.423190179690195e0 6.503983966101702e0 6.585794013240370e0
      6.668633104092521e0 6.752514182434615e0 6.837450354855823e0 6.923454892805864e0
      7.010541234668786e0 7.098722987862693e0 7.188013930965907e0 7.278428015869975e0
      7.369979369959585e0 7.462682298320091e0 7.556551285972668e0 7.651601000137589e0
      7.747846292526097e0 7.845302201660916e0 7.943983955226133e0 8.043906972446532e0
      8.145086866496815e0 8.247539446941312e0 8.351280722204127e0 8.456326902070600e0
      8.562694400220066e0 8.670399836790491e0 8.779460040975492e0 8.889892053653833e0
      9.001713130052181e0 9.114940742441245e0 9.229592582865788e0 9.345686565909174e0
      9.463240831492415e0 9.582273747708687e0 9.702803913693344e0 9.824850162530007e0
      9.948431564193395e0 1.007356742852891e1 1.020027730826997e1 1.032858100209308e1
      1.045849855771142e1 1.059005027500740e1 1.072325670920446e1 1.085813867407896e1
      1.099471724521236e1 1.113301376328424e1 1.127304983740693e1 1.141484734850190e1
      1.155842845271877e1 1.170381558489719e1 1.185103146207233e1 1.200009908702456e1
      1.215104175187350e1 1.230388304171766e1 1.245864683831955e1 1.261535732383722e1
      1.277403898460290e1 1.293471661494890e1 1.309741532108186e1 1.326216052500567e1
      1.342897796849355e1 1.359789371711051e1 1.376893416428587e1 1.394212603543752e1
      1.411749639214770e1 1.429507263639140e1 1.447488251481811e1 1.465695412308712e1
      1.484131591025766e1 1.502799668323410e1 1.521702561126696e1 1.540843223051089e1
      1.560224644863951e1 1.579849854951875e1 1.599721919793867e1 1.619843944440484e1
      1.640219072999020e1 1.660850489124761e1 1.681741416518455e1 1.702895119430011e1
      1.724314903168543e1 1.746004114618844e1 1.767966142764325e1 1.790204419216567e1
      1.812722418751514e1 1.835523659852400e1 1.858611705259543e1 1.881990162527005e1
      1.905662684586300e1 1.929632970317166e1 1.953904765125510e1 1.978481861528658e1
      2.003368099747918e1 2.028567368308649e1 2.054083604647834e1 2.079920795729306e1
      2.106082978666748e1 2.132574241354461e1 2.159398723106141e1 2.186560615301642e1
      2.214064162041872e1 2.241913660811973e1 2.270113463152781e1 2.298667975340789e1
      2.327581659076623e1 2.356859032182186e1 2.386504669306599e1 2.416523202640968e1
      2.446919322642204e1 2.477697778765903e1 2.508863380208446e1 2.540420996658473e1
      2.572375559057750e1 2.604732060371668e1 2.637495556369393e1 2.670671166413822e1
      2.704264074261530e1 2.738279528872706e1 2.772722845231340e1 2.807599405175695e1
      2.842914658239209e1 2.878674122502034e1 2.914883385453202e1 2.951548104863723e1
      2.988674009670606e1 3.026266900871999e1 3.064332652433646e1 3.102877212206664e1
      3.141906602856942e1 3.181426922806181e1 3.221444347184765e1 3.261965128796684e1
      3.302995599096489e1 3.344542169178651e1 3.386611330779276e1 3.429209657290444e1
      3.472343804787351e1 3.516020513068288e1 3.560246606707791e1 3.605028996122977e1
      3.650374678653289e1 3.696290739653893e1 3.742784353602722e1 3.789862785221556e1
      3.837533390611123e1 3.885803618400488e1 3.934681010910965e1 3.984173205334560e1
      4.034287934927351e1 4.085033030217805e1 4.136416420230288e1 4.188446133724043e1
      4.241130300447646e1 4.294477152409339e1 4.348495025163287e1 4.403192359111990e1
      4.458577700825176e1 4.514659704375156e1 4.571447132689090e1 4.628948858918196e1
      4.687173867824170e1 4.746131257183129e1 4.805830239207094e1 4.866280141983473e1
      4.927490410932568e1 4.989470610283421e1 5.052230424568295e1 5.115779660135843e1
      5.180128246683420e1 5.245286238808605e1 5.311263817580212e1 5.378071292129174e1
      5.445719101259295e1 5.514217815078388e1 5.583578136649860e1 5.653810903665052e1
      5.724927090136719e1 5.796937808113665e1 5.869854309417089e1 5.943687987398683e1
      6.018450378720822e1 6.094153165159281e1 6.170808175428437e1 6.248427387029610e1
      6.327022928122542e1 6.406607079420408e1 6.487192276108790e1 6.568791109788598e1
      6.651416330443618e1 6.735080848432695e1 6.819797736506955e1 6.905580231852544e1
      6.992441738158859e1 7.080395827712994e1 7.169456243520400e1 7.259636901452215e1
      7.350951892419740e1 7.443415484576071e1 7.537042125545614e1 7.631846444681518e1
      7.727843255351499e1 7.825047557252566e1 7.923474538754622e1 8.023139579273790e1
      8.124058251675441e1 8.226246324707423e1 8.329719765464089e1 8.434494741881036e1
      8.540587625261516e1 8.648014992834417e1 8.756793630344459e1 8.866940534675093e1
      8.978472916504185e1 9.091408202993323e1 9.205764040510811e1 9.321558297388883e1
      9.438809066715796e1 9.557534669162775e1 9.677753655846766e1 9.799484811229043e1
      9.922747156050264e1
      </PP_R>
    <PP_RAB>
      1.139852456943145e-6 1.154190035836278e-6 1.168707959270728e-6 1.183408495701567e-6
      1.198293942117524e-6 1.213366624399886e-6 1.228628897685924e-6 1.244083146736889e-6
      1.259731786310638e-6 1.275577261538943e-6 1.291622048309546e-6 1.307868653653023e-6
      1.324319616134513e-6 1.340977506250371e-6 1.357844926829823e-6 1.374924513441648e-6
      1.392218934806004e-6 1.409730893211416e-6 1.427463124937009e-6 1.445418400680072e-6
      1.463599525988968e-6 1.482009341701516e-6 1.500650724388876e-6 1.519526586805019e-6
      1.538639878341852e-6 1.557993585490062e-6 1.577590732305768e-6 1.597434380883031e-6
      1.617527631832310e-6 1.637873624764950e-6 1.658475538783739e-6 1.679336592979659e-6
      1.700460046934867e-6 1.721849201232021e-6 1.743507397969999e-6 1.765438021286102e-6
      1.787644497884843e-6 1.810130297573370e-6 1.832898933803629e-6 1.855953964221359e-6
      1.879298991221965e-6 1.902937662513415e-6 1.926873671686188e-6 1.951110758790415e-6
      1.975652710920271e-6 2.000503362805706e-6 2.025666597411633e-6 2.051146346544658e-6
      2.076946591467418e-6 2.103071363520677e-6 2.129524744753217e-6 2.156310868559678e-6
      2.183433920326400e-6 2.210898138085401e-6 2.238707813176588e-6 2.266867290918269e-6
      2.295380971286134e-6 2.324253309600751e-6 2.353488817223722e-6 2.383092062262596e-6
      2.413067670284637e-6 2.443420325039583e-6 2.474154769191496e-6 2.505275805059799e-6
      2.536788295369668e-6 2.568697164011823e-6 2.601007396811912e-6 2.633724042309542e-6
      2.666852212547135e-6 2.700397083868693e-6 2.734363897728607e-6 2.768757961510646e-6
      2.803584649357254e-6 2.838849403009259e-6 2.874557732656171e-6 2.910715217797142e-6
      2.947327508112791e-6 2.984400324347967e-6 3.021939459205629e-6 3.059950778251979e-6
      3.098440220832948e-6 3.137413801002249e-6 3.176877608461073e-6 3.216837809509625e-6
      3.257300648010623e-6 3.298272446364902e-6 3.339759606499313e-6 3.381768610867032e-6
      3.424306023460461e-6 3.467378490836860e-6 3.510992743156891e-6 3.555155595236209e-6
      3.599873947610304e-6 3.645154787612710e-6 3.691005190466808e-6 3.737432320391325e-6
      3.784443431719769e-6 3.832045870033929e-6 3.880247073311636e-6 3.929054573088977e-6
      3.978475995637083e-6 4.028519063153783e-6 4.079191594970186e-6 4.130501508772477e-6
      4.182456821839090e-6 4.235065652293390e-6 4.288336220372168e-6 4.342276849710067e-6
      4.396895968640161e-6 4.452202111510912e-6 4.508203920019663e-6 4.564910144562929e-6
      4.622329645603665e-6 4.680471395055726e-6 4.739344477685759e-6 4.798958092532706e-6
      4.859321554345164e-6 4.920444295036853e-6 4.982335865160364e-6 5.045005935399448e-6
      5.108464298080085e-6 5.172720868700546e-6 5.237785687480724e-6 5.303668920930925e-6
      5.370380863440425e-6 5.437931938885962e-6 5.506332702260508e-6 5.575593841322503e-6