<UPF version="2.0.1">
  <PP_INFO>
Generated using Vanderbilt code, version   7  3  6
Author: kfg    Generation date:   23    7 2013
Automatically converted from original format
1        The Pseudo was generated with a Scalar-Relativistic Calculation
1.80000000000E+00    Local Potential cutoff radius
nl pn  l   occ               Rcut            Rcut US             E pseu
4S  4  0  2.00      0.00000000000      2.00000000000     -2.54016973500
4P  4  1  6.00      0.00000000000      2.00000000000     -1.36841154000
5S  5  0  0.50      0.00000000000      2.00000000000     -0.29713560700
4D  4  2  0.00      0.00000000000      2.20000000000     -0.11710124900
</PP_INFO>
  <PP_HEADER element="Rb" pseudo_type="US" relativistic="scalar" is_ultrasoft="T" is_paw="F" is_coulomb="F" has_so="F" has_wfc="F" has_gipaw="F" core_correction="T" functional="PBESOL" z_valence="9.0" total_psenergy="-52.9324929046" wfc_cutoff="0.0" rho_cutoff="0.0" l_max="2" mesh_size="881" number_of_wfc="4" number_of_proj="6"/>
  <PP_MESH>
    <PP_R>
0.00000000000000E+00 1.14515700216000E-06 2.30988886508000E-06 3.49453019367000E-06 
4.69942131248000E-06 5.92490836340000E-06 7.17134340516000E-06 8.43908451440000E-06 
9.72849588864000E-06 1.10399479508000E-05 1.23738174557000E-05 1.37304875982000E-05 
1.51103481234000E-05 1.65137954385000E-05 1.79412327268000E-05 1.93930700634000E-05 
2.08697245331000E-05 2.23716203500000E-05 2.38991889799000E-05 2.54528692637000E-05 
2.70331075435000E-05 2.86403577914000E-05 3.02750817391000E-05 3.19377490113000E-05 
3.36288372601000E-05 3.53488323023000E-05 3.70982282594000E-05 3.88775276988000E-05 
4.06872417790000E-05 4.25278903957000E-05 4.44000023317000E-05 4.63041154085000E-05 
4.82407766409000E-05 5.02105423942000E-05 5.22139785441000E-05 5.42516606389000E-05 
5.63241740654000E-05 5.84321142164000E-05 6.05760866624000E-05 6.27567073253000E-05 
6.49746026551000E-05 6.72304098102000E-05 6.95247768404000E-05 7.18583628729000E-05 
7.42318383019000E-05 7.66458849808000E-05 7.91011964187000E-05 8.15984779789000E-05 
8.41384470822000E-05 8.67218334125000E-05 8.93493791267000E-05 9.20218390678000E-05 
9.47399809819000E-05 9.75045857385000E-05 1.00316447555000E-04 1.03176374225000E-04 
1.06085187350000E-04 1.09043722576000E-04 1.12052829833000E-04 1.15113373579000E-04 
1.18226233049000E-04 1.21392302507000E-04 1.24612491503000E-04 1.27887725137000E-04 
1.31218944318000E-04 1.34607106043000E-04 1.38053183663000E-04 1.41558167171000E-04 
1.45123063481000E-04 1.48748896717000E-04 1.52436708513000E-04 1.56187558304000E-04 
1.60002523638000E-04 1.63882700480000E-04 1.67829203530000E-04 1.71843166542000E-04 
1.75925742650000E-04 1.80078104698000E-04 1.84301445581000E-04 1.88596978581000E-04 
1.92965937724000E-04 1.97409578125000E-04 2.01929176358000E-04 2.06526030815000E-04 
2.11201462084000E-04 2.15956813324000E-04 2.20793450658000E-04 2.25712763557000E-04 
2.30716165244000E-04 2.35805093101000E-04 2.40981009077000E-04 2.46245400113000E-04 
2.51599778566000E-04 2.57045682647000E-04 2.62584676857000E-04 2.68218352444000E-04 
2.73948327852000E-04 2.79776249193000E-04 2.85703790715000E-04 2.91732655287000E-04 
2.97864574886000E-04 3.04101311092000E-04 3.10444655599000E-04 3.16896430728000E-04 
3.23458489948000E-04 3.30132718413000E-04 3.36921033499000E-04 3.43825385357000E-04 
3.50847757475000E-04 3.57990167243000E-04 3.65254666538000E-04 3.72643342311000E-04 
3.80158317183000E-04 3.87801750064000E-04 3.95575836762000E-04 4.03482810622000E-04 
4.11524943166000E-04 4.19704544742000E-04 4.28023965191000E-04 4.36485594522000E-04 
4.45091863597000E-04 4.53845244831000E-04 4.62748252901000E-04 4.71803445469000E-04 
4.81013423916000E-04 4.90380834092000E-04 4.99908367070000E-04 5.09598759929000E-04 
5.19454796529000E-04 5.29479308320000E-04 5.39675175149000E-04 5.50045326092000E-04 
5.60592740293000E-04 5.71320447820000E-04 5.82231530535000E-04 5.93329122981000E-04 
6.04616413283000E-04 6.16096644059000E-04 6.27773113359000E-04 6.39649175605000E-04 
6.51728242561000E-04 6.64013784309000E-04 6.76509330247000E-04 6.89218470104000E-04 
7.02144854970000E-04 7.15292198345000E-04 7.28664277207000E-04 7.42264933094000E-04 
7.56098073212000E-04 7.70167671555000E-04 7.84477770046000E-04 7.99032479700000E-04 
8.13835981802000E-04 8.28892529112000E-04 8.44206447086000E-04 8.59782135115000E-04 
8.75624067793000E-04 8.91736796202000E-04 9.08124949215000E-04 9.24793234832000E-04 
9.41746441530000E-04 9.58989439636000E-04 9.76527182730000E-04 9.94364709067000E-04 
1.01250714302000E-03 1.03095969656000E-03 1.04972767076000E-03 1.06881645728000E-03 
1.08823153996000E-03 1.10797849639000E-03 1.12806299948000E-03 1.14849081912000E-03 
1.16926782382000E-03 1.19039998243000E-03 1.21189336579000E-03 1.23375414854000E-03 
1.25598861087000E-03 1.27860314030000E-03 1.30160423355000E-03 1.32499849839000E-03 
1.34879265554000E-03 1.37299354059000E-03 1.39760810600000E-03 1.42264342306000E-03 
1.44810668391000E-03 1.47400520368000E-03 1.50034642250000E-03 1.52713790769000E-03 
1.55438735593000E-03 1.58210259546000E-03 1.61029158832000E-03 1.63896243268000E-03 
1.66812336511000E-03 1.69778276299000E-03 1.72794914687000E-03 1.75863118299000E-03 
1.78983768570000E-03 1.82157762002000E-03 1.85386010421000E-03 1.88669441243000E-03 
1.92008997731000E-03 1.95405639277000E-03 1.98860341670000E-03 2.02374097379000E-03 
2.05947915838000E-03 2.09582823736000E-03 2.13279865311000E-03 2.17040102653000E-03 
2.20864616003000E-03 2.24754504073000E-03 2.28710884350000E-03 2.32734893426000E-03 
2.36827687321000E-03 2.40990441816000E-03 2.45224352790000E-03 2.49530636562000E-03 
2.53910530246000E-03 2.58365292100000E-03 2.62896201891000E-03 2.67504561261000E-03 
2.72191694103000E-03 2.76958946939000E-03 2.81807689310000E-03 2.86739314164000E-03 
2.91755238262000E-03 2.96856902583000E-03 3.02045772736000E-03 3.07323339382000E-03 
3.12691118664000E-03 3.18150652642000E-03 3.23703509733000E-03 3.29351285168000E-03 
3.35095601441000E-03 3.40938108783000E-03 3.46880485635000E-03 3.52924439126000E-03 
3.59071705567000E-03 3.65324050949000E-03 3.71683271449000E-03 3.78151193948000E-03 
3.84729676556000E-03 3.91420609143000E-03 3.98225913885000E-03 4.05147545813000E-03 
4.12187493380000E-03 4.19347779025000E-03 4.26630459760000E-03 4.34037627759000E-03 
4.41571410957000E-03 4.49233973664000E-03 4.57027517187000E-03 4.64954280460000E-03 
4.73016540688000E-03 4.81216614003000E-03 4.89556856127000E-03 4.98039663051000E-03 
5.06667471720000E-03 5.15442760737000E-03 5.24368051073000E-03 5.33445906791000E-03 
5.42678935784000E-03 5.52069790521000E-03 5.61621168814000E-03 5.71335814589000E-03 
5.81216518676000E-03 5.91266119609000E-03 6.01487504445000E-03 6.11883609590000E-03 
6.22457421643000E-03 6.33211978256000E-03 6.44150369005000E-03 6.55275736279000E-03 
6.66591276179000E-03 6.78100239442000E-03 6.89805932369000E-03 7.01711717781000E-03 
7.13821015978000E-03 7.26137305728000E-03 7.38664125263000E-03 7.51405073294000E-03 
7.64363810052000E-03 7.77544058328000E-03 7.90949604554000E-03 8.04584299884000E-03 
8.18452061302000E-03 8.32556872748000E-03 8.46902786260000E-03 8.61493923142000E-03 
8.76334475146000E-03 8.91428705675000E-03 9.06780951008000E-03 9.22395621550000E-03 
9.38277203093000E-03 9.54430258108000E-03 9.70859427054000E-03 9.87569429716000E-03 
1.00456506655000E-02 1.02185122008000E-02 1.03943285628000E-02 1.05731502601000E-02 
1.07550286648000E-02 1.09400160269000E-02 1.11281654899000E-02 1.13195311053000E-02 
1.15141678489000E-02 1.17121316359000E-02 1.19134793376000E-02 1.21182687973000E-02 
1.23265588470000E-02 1.25384093243000E-02 1.27538810900000E-02 1.29730360447000E-02 
1.31959371475000E-02 1.34226484337000E-02 1.36532350328000E-02 1.38877631881000E-02 
1.41263002748000E-02 1.43689148201000E-02 1.46156765225000E-02 1.48666562719000E-02 
1.51219261697000E-02 1.53815595502000E-02 1.56456310010000E-02 1.59142163847000E-02 
1.61873928608000E-02 1.64652389074000E-02 1.67478343444000E-02 1.70352603560000E-02 
1.73275995141000E-02 1.76249358022000E-02 1.79273546391000E-02 1.82349429040000E-02 
1.85477889611000E-02 1.88659826848000E-02 1.91896154862000E-02 1.95187803386000E-02 
1.98535718048000E-02 2.01940860639000E-02 2.05404209391000E-02 2.08926759255000E-02 
2.12509522194000E-02 2.16153527464000E-02 2.19859821920000E-02 2.23629470306000E-02 
2.27463555571000E-02 2.31363179172000E-02 2.35329461396000E-02 2.39363541680000E-02 
2.43466578936000E-02 2.47639751888000E-02 2.51884259407000E-02 2.56201320858000E-02 
2.60592176450000E-02 2.65058087591000E-02 2.69600337250000E-02 2.74220230327000E-02 
2.78919094029000E-02 2.83698278248000E-02 2.88559155952000E-02 2.93503123576000E-02 
2.98531601426000E-02 3.03646034088000E-02 3.08847890838000E-02 3.14138666070000E-02 
3.19519879720000E-02 3.24993077708000E-02 3.30559832376000E-02 3.36221742947000E-02 
3.41980435977000E-02 3.47837565827000E-02 3.53794815139000E-02 3.59853895312000E-02 
3.66016547006000E-02 3.72284540629000E-02 3.78659676856000E-02 3.85143787139000E-02 
3.91738734239000E-02 3.98446412755000E-02 4.05268749673000E-02 4.12207704921000E-02 
4.19265271924000E-02 4.26443478185000E-02 4.33744385864000E-02 4.41170092371000E-02 
4.48722730967000E-02 4.56404471379000E-02 4.64217520423000E-02 4.72164122637000E-02 
4.80246560925000E-02 4.88467157215000E-02 4.96828273126000E-02 5.05332310645000E-02 
5.13981712817000E-02 5.22778964448000E-02 5.31726592818000E-02 5.40827168407000E-02 
5.50083305635000E-02 5.59497663611000E-02 5.69072946898000E-02 5.78811906290000E-02 
5.88717339600000E-02 5.98792092468000E-02 6.09039059177000E-02 6.19461183480000E-02 
6.30061459453000E-02 6.40842932351000E-02 6.51808699480000E-02 6.62961911095000E-02 
6.74305771296000E-02 6.85843538956000E-02 6.97578528652000E-02 7.09514111619000E-02 
7.21653716720000E-02 7.34000831428000E-02 7.46559002829000E-02 7.59331838645000E-02 
7.72323008263000E-02 7.85536243795000E-02 7.98975341147000E-02 8.12644161113000E-02 
8.26546630480000E-02 8.40686743159000E-02 8.55068561329000E-02 8.69696216610000E-02 
8.84573911243000E-02 8.99705919302000E-02 9.15096587921000E-02 9.30750338541000E-02 
9.46671668180000E-02 9.62865150730000E-02 9.79335438264000E-02 9.96087262377000E-02 
1.01312543554000E-01 1.03045485250000E-01 1.04808049166000E-01 1.06600741652000E-01 
1.08424077714000E-01 1.10278581162000E-01 1.12164784757000E-01 1.14083230371000E-01 
1.16034469135000E-01 1.18019061603000E-01 1.20037577909000E-01 1.22090597934000E-01 
1.24178711471000E-01 1.26302518395000E-01 1.28462628835000E-01 1.30659663348000E-01 
1.32894253099000E-01 1.35167040044000E-01 1.37478677110000E-01 1.39829828385000E-01 
1.42221169309000E-01 1.44653386870000E-01 1.47127179795000E-01 1.49643258758000E-01 
1.52202346580000E-01 1.54805178436000E-01 1.57452502070000E-01 1.60145078007000E-01 
1.62883679772000E-01 1.65669094112000E-01 1.68502121223000E-01 1.71383574978000E-01 
1.74314283164000E-01 1.77295087716000E-01 1.80326844962000E-01 1.83410425868000E-01 
1.86546716285000E-01 1.89736617209000E-01 1.92981045039000E-01 1.96280931834000E-01 
1.99637225588000E-01 2.03050890500000E-01 2.06522907249000E-01 2.10054273280000E-01 
2.13646003084000E-01 2.17299128496000E-01 2.21014698989000E-01 2.24793781974000E-01 
2.28637463109000E-01 2.32546846608000E-01 2.36523055563000E-01 2.40567232260000E-01 
2.44680538513000E-01 2.48864155997000E-01 2.53119286582000E-01 2.57447152687000E-01 
2.61848997622000E-01 2.66326085953000E-01 2.70879703862000E-01 2.75511159513000E-01 
2.80221783434000E-01 2.85012928898000E-01 2.89885972307000E-01 2.94842313591000E-01 
2.99883376613000E-01 3.05010609572000E-01 3.10225485423000E-01 3.15529502298000E-01 
3.20924183940000E-01 3.26411080135000E-01 3.31991767163000E-01 3.37667848248000E-01 
3.43440954017000E-01 3.49312742972000E-01 3.55284901964000E-01 3.61359146680000E-01 
3.67537222132000E-01 3.73820903161000E-01 3.80211994948000E-01 3.86712333530000E-01 
3.93323786327000E-01 4.00048252684000E-01 4.06887664408000E-01 4.13843986330000E-01 
4.20919216867000E-01 4.28115388595000E-01 4.35434568837000E-01 4.42878860250000E-01 
4.50450401435000E-01 4.58151367550000E-01 4.65983970933000E-01 4.73950461739000E-01 
4.82053128588000E-01 4.90294299218000E-01 4.98676341159000E-01 5.07201662409000E-01 
5.15872712127000E-01 5.24691981339000E-01 5.33662003650000E-01 5.42785355973000E-01 
5.52064659272000E-01 5.61502579310000E-01 5.71101827420000E-01 5.80865161279000E-01 
5.90795385705000E-01 6.00895353459000E-01 6.11167966065000E-01 6.21616174648000E-01 
6.32242980775000E-01 6.43051437321000E-01 6.54044649348000E-01 6.65225774992000E-01 
6.76598026374000E-01 6.88164670523000E-01 6.99929030310000E-01 7.11894485410000E-01 
7.24064473265000E-01 7.36442490079000E-01 7.49032091815000E-01 7.61836895222000E-01 
7.74860578873000E-01 7.88106884220000E-01 8.01579616670000E-01 8.15282646678000E-01 
8.29219910861000E-01 8.43395413123000E-01 8.57813225814000E-01 8.72477490890000E-01 
8.87392421112000E-01 9.02562301251000E-01 9.17991489320000E-01 9.33684417826000E-01 
9.49645595043000E-01 9.65879606309000E-01 9.82391115341000E-01 9.99184865576000E-01 
1.01626568153000E+00 1.03363847020000E+00 1.05130822245000E+00 1.06928001445000E+00 
1.08755900915000E+00 1.10615045776000E+00 1.12505970123000E+00 1.14429217183000E+00 
1.16385339468000E+00 1.18374898933000E+00 1.20398467140000E+00 1.22456625422000E+00 
1.24549965047000E+00 1.26679087391000E+00 1.28844604111000E+00 1.31047137317000E+00 
1.33287319754000E+00 1.35565794983000E+00 1.37883217566000E+00 1.40240253255000E+00 
1.42637579179000E+00 1.45075884043000E+00 1.47555868327000E+00 1.50078244481000E+00 
1.52643737135000E+00 1.55253083305000E+00 1.57907032606000E+00 1.60606347467000E+00 
1.63351803349000E+00 1.66144188967000E+00 1.68984306520000E+00 1.71872971918000E+00 
1.74811015021000E+00 1.77799279870000E+00 1.80838624936000E+00 1.83929923364000E+00 
1.87074063224000E+00 1.90271947768000E+00 1.93524495684000E+00 1.96832641368000E+00 
2.00197335186000E+00 2.03619543749000E+00 2.07100250190000E+00 2.10640454451000E+00 
2.14241173563000E+00 2.17903441943000E+00 2.21628311690000E+00 2.25416852886000E+00 
2.29270153907000E+00 2.33189321731000E+00 2.37175482260000E+00 2.41229780640000E+00 
2.45353381592000E+00 2.49547469747000E+00 2.53813249986000E+00 2.58151947785000E+00 
2.62564809568000E+00 2.67053103064000E+00 2.71618117674000E+00 2.76261164838000E+00 
2.80983578412000E+00 2.85786715056000E+00 2.90671954618000E+00 2.95640700532000E+00 
3.00694380224000E+00 3.05834445516000E+00 3.11062373051000E+00 3.16379664711000E+00 
3.21787848051000E+00 3.27288476738000E+00 3.32883130995000E+00 3.38573418059000E+00 
3.44360972639000E+00 3.50247457387000E+00 3.56234563377000E+00 3.62324010588000E+00 
3.68517548400000E+00 3.74816956097000E+00 3.81224043378000E+00 3.87740650874000E+00 
3.94368650680000E+00 4.01109946893000E+00 4.07966476156000E+00 4.14940208218000E+00 
4.22033146497000E+00 4.29247328657000E+00 4.36584827193000E+00 4.44047750026000E+00 
4.51638241109000E+00 4.59358481044000E+00 4.67210687706000E+00 4.75197116883000E+00 
4.83320062920000E+00 4.91581859383000E+00 4.99984879727000E+00 5.08531537976000E+00 
5.17224289420000E+00 5.26065631318000E+00 5.35058103617000E+00 5.44204289679000E+00 
5.53506817028000E+00 5.62968358099000E+00 5.72591631011000E+00 5.82379400342000E+00 
5.92334477930000E+00 6.02459723676000E+00 6.12758046367000E+00 6.23232404511000E+00 
6.33885807191000E+00 6.44721314921000E+00 6.55742040533000E+00 6.66951150069000E+00 
6.78351863689000E+00 6.89947456598000E+00 7.01741259984000E+00 7.13736661979000E+00 
7.25937108631000E+00 7.38346104891000E+00 7.50967215624000E+00 7.63804066631000E+00 
7.76860345690000E+00 7.90139803619000E+00 8.03646255347000E+00 8.17383581019000E+00 
8.31355727100000E+00 8.45566707520000E+00 8.60020604816000E+00 8.74721571314000E+00 
8.89673830319000E+00 9.04881677323000E+00 9.20349481247000E+00 9.36081685692000E+00 
9.52082810217000E+00 9.68357451633000E+00 9.84910285332000E+00 1.00174606662000E+01 
1.01886963210000E+01 1.03628590102000E+01 1.05399987676000E+01 1.07201664820000E+01 
1.09034139119000E+01 1.10897937009000E+01 1.12793593923000E+01 1.14721654447000E+01 
1.16682672474000E+01 1.18677211368000E+01 1.20705844120000E+01 1.22769153518000E+01 
1.24867732311000E+01 1.27002183379000E+01 1.29173119910000E+01 1.31381165570000E+01 
1.33626954690000E+01 1.35911132440000E+01 1.38234355022000E+01 1.40597289850000E+01 
1.43000615753000E+01 1.45445023157000E+01 1.47931214294000E+01 1.50459903399000E+01 
1.53031816916000E+01 1.55647693704000E+01 1.58308285256000E+01 1.61014355906000E+01 
1.63766683058000E+01 1.66566057402000E+01 1.69413283143000E+01 1.72309178234000E+01 
1.75254574611000E+01 1.78250318428000E+01 1.81297270304000E+01 1.84396305571000E+01 
1.87548314520000E+01 1.90754202663000E+01 1.94014890990000E+01 1.97331316233000E+01 
2.00704431138000E+01 2.04135204734000E+01 2.07624622616000E+01 2.11173687228000E+01 
2.14783418146000E+01 2.18454852376000E+01 2.22189044650000E+01 2.25987067730000E+01 
2.29850012714000E+01 2.33778989351000E+01 2.37775126360000E+01 2.41839571755000E+01 
2.45973493171000E+01 2.50178078204000E+01 2.54454534751000E+01 2.58804091354000E+01 
2.63227997557000E+01 2.67727524262000E+01 2.72303964096000E+01 2.76958631783000E+01 
2.81692864518000E+01 2.86508022354000E+01 2.91405488593000E+01 2.96386670183000E+01 
3.01452998120000E+01 3.06605927862000E+01 3.11846939747000E+01 3.17177539416000E+01 
3.22599258247000E+01 3.28113653794000E+01 3.33722310237000E+01 3.39426838835000E+01 
3.45228878388000E+01 3.51130095709000E+01 3.57132186105000E+01 3.63236873860000E+01 
3.69445912732000E+01 3.75761086458000E+01 3.82184209265000E+01 3.88717126392000E+01 
3.95361714621000E+01 4.02119882812000E+01 4.08993572456000E+01 4.15984758232000E+01 
4.23095448571000E+01 4.30327686238000E+01 4.37683548915000E+01 4.45165149798000E+01 
4.52774638207000E+01 4.60514200200000E+01 4.68386059204000E+01 4.76392476652000E+01 
4.84535752632000E+01 4.92818226550000E+01 5.01242277801000E+01 5.09810326451000E+01 
5.18524833935000E+01 5.27388303763000E+01 5.36403282237000E+01 5.45572359186000E+01 
5.54898168710000E+01 5.64383389932000E+01 5.74030747774000E+01 5.83843013733000E+01 
5.93823006685000E+01 6.03973593689000E+01 6.14297690811000E+01 6.24798263965000E+01 
6.35478329762000E+01 6.46340956378000E+01 6.57389264437000E+01 6.68626427903000E+01 
6.80055674995000E+01 6.91680289116000E+01 7.03503609792000E+01 7.15529033633000E+01 
7.27760015313000E+01 7.40200068554000E+01 7.52852767145000E+01 7.65721745959000E+01 
7.78810702006000E+01 7.92123395490000E+01 8.05663650889000E+01 8.19435358057000E+01 
8.33442473340000E+01 8.47689020710000E+01 8.62179092924000E+01 8.76916852700000E+01 
8.91906533912000E+01 9.07152442804000E+01 9.22658959231000E+01 9.38430537915000E+01 
9.54471709726000E+01 9.70787082981000E+01 9.87381344773000E+01 1.00425926231000E+02 
1.02142568429000E+02 1.03888554230000E+02 1.05664385222000E+02 1.07470571566000E+02 
1.09307632144000E+02 1.11176094710000E+02 1.13076496035000E+02 1.15009382069000E+02 
1.16975308092000E+02 1.18974838876000E+02 1.21008548849000E+02 1.23077022256000E+02 
1.25180853329000E+02 1.27320646457000E+02 1.29497016363000E+02 1.31710588275000E+02 
1.33961998110000E+02 1.36251892654000E+02 1.38580929749000E+02 1.40949778482000E+02 
1.43359119379000E+02 1.45809644596000E+02 1.48302058122000E+02 1.50837075978000E+02 
1.53415426427000E+02 1.56037850178000E+02 1.58705100604000E+02 1.61417943953000E+02 
1.64177159573000E+02 1.66983540133000E+02 1.69837891852000E+02 1.72741034730000E+02 
1.75693802785000E+02 1.78697044288000E+02 1.81751622013000E+02 1.84858413481000E+02 
1.88018311214000E+02 1.91232222989000E+02 1.94501072099000E+02 1.97825797624000E+02 
2.01207354691000E+02 
</PP_R>
    <PP_RAB>
1.13547969614000E-06 1.15488913685000E-06 1.17463035487000E-06 1.19470902145000E-06 
1.21513090482000E-06 1.23590187179000E-06 1.25702788944000E-06 1.27851502689000E-06 
1.30036945696000E-06 1.32259745801000E-06 1.34520541572000E-06 1.36819982492000E-06 
1.39158729145000E-06 1.41537453408000E-06 1.43956838642000E-06 1.46417579891000E-06 
1.48920384076000E-06 1.51465970207000E-06 1.54055069580000E-06 1.56688425993000E-06 
1.59366795959000E-06 1.62090948921000E-06 1.64861667477000E-06 1.67679747599000E-06 
1.70545998868000E-06 1.73461244702000E-06 1.76426322596000E-06 1.79442084357000E-06 
1.82509396358000E-06 1.85629139776000E-06 1.88802210854000E-06 1.92029521153000E-06 
1.95311997819000E-06 1.98650583841000E-06 2.02046238332000E-06 2.05499936798000E-06 
2.09012671419000E-06 2.12585451336000E-06 2.16219302940000E-06 2.19915270165000E-06 
2.23674414792000E-06 2.27497816750000E-06 2.31386574428000E-06 2.35341804991000E-06 
2.39364644702000E-06 2.43456249242000E-06 2.47617794052000E-06 2.51850474663000E-06 
2.56155507041000E-06 2.60534127940000E-06 2.64987595252000E-06 2.69517188373000E-06 
2.74124208566000E-06 2.78809979340000E-06 2.83575846826000E-06 2.88423180165000E-06 
2.93353371903000E-06 2.98367838387000E-06 3.03468020178000E-06 3.08655382459000E-06 
3.13931415459000E-06 3.19297634879000E-06 3.24755582331000E-06 3.30306825778000E-06 
3.35952959984000E-06 3.41695606974000E-06 3.47536416500000E-06 3.53477066514000E-06 
3.59519263649000E-06 3.65664743711000E-06 3.71915272178000E-06 3.78272644706000E-06 
3.84738687645000E-06 3.91315258563000E-06 3.98004246784000E-06 4.04807573922000E-06 
4.11727194443000E-06 4.18765096220000E-06 4.25923301106000E-06 4.33203865514000E-06 
4.40608881010000E-06 4.48140474911000E-06 4.55800810899000E-06 4.63592089639000E-06 
4.71516549416000E-06 4.79576466774000E-06 4.87774157170000E-06 4.96111975642000E-06 
5.04592317485000E-06 5.13217618937000E-06 5.21990357879000E-06 5.30913054550000E-06 
5.39988272268000E-06 5.49218618168000E-06 5.58606743948000E-06 5.68155346637000E-06 
5.77867169362000E-06 5.87745002143000E-06 5.97791682690000E-06 6.08010097220000E-06 
6.18403181284000E-06 6.28973920617000E-06 6.39725351985000E-06 6.50660564068000E-06 
6.61782698340000E-06 6.73094949975000E-06 6.84600568764000E-06 6.96302860050000E-06 
7.08205185672000E-06 7.20310964941000E-06 7.32623675611000E-06 7.45146854886000E-06 
7.57884100433000E-06 7.70839071417000E-06 7.84015489549000E-06 7.97417140160000E-06 
8.11047873285000E-06 8.24911604769000E-06 8.39012317395000E-06 8.53354062024000E-06 
8.67940958762000E-06 8.82777198142000E-06 8.97867042328000E-06 9.13214826341000E-06 
9.28824959302000E-06 9.44701925701000E-06 9.60850286682000E-06 9.77274681357000E-06 
9.93979828137000E-06 1.01097052609000E-05 1.02825165631000E-05 1.04582818333000E-05 
1.06370515655000E-05 1.08188771168000E-05 1.10038107222000E-05 1.11919055094000E-05 
1.13832155145000E-05 1.15777956971000E-05 1.17757019565000E-05 1.19769911471000E-05 
1.21817210955000E-05 1.23899506166000E-05 1.26017395308000E-05 1.28171486810000E-05 
1.30362399499000E-05 1.32590762783000E-05 1.34857216827000E-05 1.37162412740000E-05 
1.39507012760000E-05 1.41891690445000E-05 1.44317130868000E-05 1.46784030809000E-05 
1.49293098962000E-05 1.51845056133000E-05 1.54440635451000E-05 1.57080582574000E-05 
1.59765655909000E-05 1.62496626826000E-05 1.65274279879000E-05 1.68099413035000E-05 
1.70972837899000E-05 1.73895379951000E-05 1.76867878780000E-05 1.79891188329000E-05 
1.82966177134000E-05 1.86093728583000E-05 1.89274741158000E-05 1.92510128703000E-05 
1.95800820684000E-05 1.99147762451000E-05 2.02551915517000E-05 2.06014257828000E-05 
2.09535784050000E-05 2.13117505847000E-05 2.16760452180000E-05 2.20465669596000E-05 
2.24234222533000E-05 2.28067193623000E-05 2.31965684004000E-05 2.35930813638000E-05 
2.39963721629000E-05 2.44065566553000E-05 2.48237526792000E-05 2.52480800869000E-05 
2.56796607794000E-05 2.61186187416000E-05 2.65650800775000E-05 2.70191730468000E-05 
2.74810281017000E-05 2.79507779242000E-05 2.84285574643000E-05 2.89145039789000E-05 
2.94087570710000E-05 2.99114587298000E-05 3.04227533720000E-05 3.09427878825000E-05 
3.14717116571000E-05 3.20096766456000E-05 3.25568373947000E-05 3.31133510932000E-05 
3.36793776167000E-05 3.42550795736000E-05 3.48406223521000E-05 3.54361741672000E-05 
3.60419061094000E-05 3.66579921937000E-05 3.72846094099000E-05 3.79219377728000E-05 
3.85701603747000E-05 3.92294634373000E-05 3.99000363655000E-05 4.05820718022000E-05 
4.12757656828000E-05 4.19813172921000E-05 4.26989293215000E-05 4.34288079270000E-05 
4.41711627887000E-05 4.49262071707000E-05 4.56941579827000E-05 4.64752358420000E-05 
4.72696651373000E-05 4.80776740926000E-05 4.88994948333000E-05 4.97353634527000E-05 
5.05855200796000E-05 5.14502089475000E-05 5.23296784649000E-05 5.32241812862000E-05 
5.41339743849000E-05 5.50593191269000E-05 5.60004813459000E-05 5.69577314194000E-05 
5.79313443471000E-05 5.89215998289000E-05 5.99287823462000E-05 6.09531812430000E-05 
6.19950908093000E-05 6.30548103655000E-05 6.41326443485000E-05 6.52289023993000E-05 
6.63438994514000E-05 6.74779558221000E-05 6.86313973037000E-05 6.98045552577000E-05 
7.09977667097000E-05 7.22113744461000E-05 7.34457271131000E-05 7.47011793163000E-05 
7.59780917227000E-05 7.72768311646000E-05 7.85977707448000E-05 7.99412899436000E-05 
8.13077747280000E-05 8.26976176628000E-05 8.41112180228000E-05 8.55489819081000E-05 
8.70113223605000E-05 8.84986594821000E-05 9.00114205560000E-05 9.15500401693000E-05 
9.31149603375000E-05 9.47066306319000E-05 9.63255083087000E-05 9.79720584401000E-05 
9.96467540480000E-05 1.01350076240000E-04 1.03082514348000E-04 1.04844566067000E-04 
1.06636737602000E-04 1.08459543807000E-04 1.10313508341000E-04 1.12199163811000E-04 
1.14117051930000E-04 1.16067723669000E-04 1.18051739420000E-04 1.20069669150000E-04 
1.22122092574000E-04 1.24209599311000E-04 1.26332789063000E-04 1.28492271780000E-04 
1.30688667840000E-04 1.32922608226000E-04 1.35194734705000E-04 1.37505700016000E-04 
1.39856168052000E-04 1.42246814060000E-04 1.44678324825000E-04 1.47151398873000E-04 
1.49666746670000E-04 1.52225090827000E-04 1.54827166308000E-04 1.57473720637000E-04 
1.60165514119000E-04 1.62903320053000E-04 1.65687924960000E-04 1.68520128800000E-04 
1.71400745213000E-04 1.74330601744000E-04 1.77310540082000E-04 1.80341416308000E-04 
1.83424101133000E-04 1.86559480152000E-04 1.89748454101000E-04 1.92991939108000E-04 
1.96290866965000E-04 1.99646185390000E-04 2.03058858300000E-04 2.06529866091000E-04 
2.10060205916000E-04 2.13650891973000E-04 2.17302955797000E-04 2.21017446556000E-04 
2.24795431350000E-04 2.28637995521000E-04 2.32546242964000E-04 2.36521296443000E-04 
2.40564297913000E-04 2.44676408851000E-04 2.48858810587000E-04 2.53112704643000E-04 
2.57439313081000E-04 2.61839878853000E-04 2.66315666154000E-04 2.70867960794000E-04 
2.75498070556000E-04 2.80207325584000E-04 2.84997078753000E-04 2.89868706069000E-04 
2.94823607054000E-04 2.99863205157000E-04 3.04988948156000E-04 3.10202308578000E-04 
3.15504784121000E-04 3.20897898083000E-04 3.26383199801000E-04 3.31962265097000E-04 
3.37636696727000E-04 3.43408124848000E-04 3.49278207477000E-04 3.55248630976000E-04 
3.61321110533000E-04 3.67497390653000E-04 3.73779245662000E-04 3.80168480215000E-04 
3.86666929816000E-04 3.93276461344000E-04 3.99998973588000E-04 4.06836397798000E-04 
4.13790698232000E-04 4.20863872726000E-04 4.28057953267000E-04 4.35375006575000E-04 
4.42817134697000E-04 4.50386475613000E-04 4.58085203848000E-04 4.65915531098000E-04 
4.73879706864000E-04 4.81980019100000E-04 4.90218794868000E-04 4.98598401011000E-04 
5.07121244825000E-04 5.15789774760000E-04 5.24606481117000E-04 5.33573896763000E-04 
5.42694597866000E-04 5.51971204624000E-04 5.61406382029000E-04 5.71002840623000E-04 
5.80763337284000E-04 5.90690676014000E-04 6.00787708744000E-04 6.11057336158000E-04 
6.21502508520000E-04 6.32126226526000E-04 6.42931542164000E-04 6.53921559593000E-04 
6.65099436033000E-04 6.76468382670000E-04 6.88031665583000E-04 6.99792606680000E-04 
7.11754584651000E-04 7.23921035941000E-04 7.36295455737000E-04 7.48881398969000E-04 
7.61682481335000E-04 7.74702380339000E-04 7.87944836346000E-04 8.01413653657000E-04 
8.15112701602000E-04 8.29045915654000E-04 8.43217298554000E-04 8.57630921467000E-04 
8.72290925149000E-04 8.87201521133000E-04 9.02366992946000E-04 9.17791697335000E-04 
9.33480065518000E-04 9.49436604461000E-04 9.65665898168000E-04 9.82172609000000E-04 
9.98961479018000E-04 1.01603733134000E-03 1.03340507152000E-03 1.05106968898000E-03 
1.06903625843000E-03 1.08730994131000E-03 1.10589598729000E-03 1.12479973579000E-03 
1.14402661749000E-03 1.16358215589000E-03 1.18347196894000E-03 1.20370177058000E-03 
1.22427737244000E-03 1.24520468551000E-03 1.26648972178000E-03 1.28813859604000E-03 
1.31015752760000E-03 1.33255284206000E-03 1.35533097317000E-03 1.37849846463000E-03 
1.40206197204000E-03 1.42602826471000E-03 1.45040422771000E-03 1.47519686378000E-03 
1.50041329536000E-03 1.52606076665000E-03 1.55214664566000E-03 1.57867842637000E-03 
1.60566373085000E-03 1.63311031144000E-03 1.66102605302000E-03 1.68941897525000E-03 
1.71829723486000E-03 1.74766912801000E-03 1.77754309268000E-03 1.80792771109000E-03 
1.83883171214000E-03 1.87026397396000E-03 1.90223352643000E-03 1.93474955378000E-03 
1.96782139724000E-03 2.00145855771000E-03 2.03567069849000E-03 2.07046764807000E-03 
2.10585940294000E-03 2.14185613047000E-03 2.17846817181000E-03 2.21570604491000E-03 
2.25358044748000E-03 2.29210226010000E-03 2.33128254935000E-03 2.37113257096000E-03 
2.41166377308000E-03 2.45288779953000E-03 2.49481649318000E-03 2.53746189933000E-03 
2.58083626918000E-03 2.62495206335000E-03 2.66982195546000E-03 2.71545883574000E-03 
2.76187581481000E-03 2.80908622735000E-03 2.85710363601000E-03 2.90594183526000E-03 
2.95561485536000E-03 3.00613696641000E-03 3.05752268245000E-03 3.10978676559000E-03 
3.16294423028000E-03 3.21701034765000E-03 3.27200064984000E-03 3.32793093450000E-03 
3.38481726932000E-03 3.44267599664000E-03 3.50152373816000E-03 3.56137739969000E-03 
3.62225417603000E-03 3.68417155591000E-03 3.74714732697000E-03 3.81119958096000E-03 