<UPF version="2.0.1">
  <PP_INFO>
Generated using Vanderbilt code, version   7  3  6
Author: kfg        Generation date:    3    2 2014
Automatically converted from original format
1        The Pseudo was generated with a Scalar-Relativistic Calculation
1.60000000000E+00    Local Potential cutoff radius
nl pn  l   occ               Rcut            Rcut US             E pseu
5S  5  0  2.00      0.00000000000      1.45000000000     -6.64018174000
5P  5  1  6.00      0.00000000000      1.50000000000     -3.82282482900
5D  5  2  4.50      0.00000000000      1.60000000000     -0.72964178000
6S  6  0  2.00      0.00000000000      1.45000000000     -0.71248646500
6P  6  1  0.00      0.00000000000      1.50000000000     -0.31049500300
</PP_INFO>
  <PP_HEADER element="Re" pseudo_type="US" relativistic="scalar" is_ultrasoft="T" is_paw="F" is_coulomb="F" has_so="F" has_wfc="F" has_gipaw="F" core_correction="T" functional="PBESOL" z_valence="15.0" total_psenergy="-189.186225324" wfc_cutoff="0.0" rho_cutoff="0.0" l_max="3" mesh_size="981" number_of_wfc="5" number_of_proj="8"/>
  <PP_MESH>
    <PP_R>
0.00000000000000E+00 2.04338527818000E-07 4.12111236446000E-07 6.23375841860000E-07 
8.38191030032000E-07 1.05661647323000E-06 1.27871284659000E-06 1.50454184497000E-06 
1.73416620012000E-06 1.96764969804000E-06 2.20505719677000E-06 2.44645464436000E-06 
2.69190909720000E-06 2.94148873868000E-06 3.19526289807000E-06 3.45330206982000E-06 
3.71567793315000E-06 3.98246337192000E-06 4.25373249492000E-06 4.52956065642000E-06 
4.81002447714000E-06 5.09520186548000E-06 5.38517203924000E-06 5.68001554754000E-06 
5.97981429325000E-06 6.28465155572000E-06 6.59461201395000E-06 6.90978177004000E-06 
7.23024837319000E-06 7.55610084394000E-06 7.88742969897000E-06 8.22432697621000E-06 
8.56688626040000E-06 8.91520270909000E-06 9.26937307910000E-06 9.62949575336000E-06 
9.99567076826000E-06 1.03679998414000E-05 1.07465864000000E-05 1.11315356094000E-05 
1.15229544024000E-05 1.19209515089000E-05 1.23256374863000E-05 1.27371247500000E-05 
1.31555276045000E-05 1.35809622756000E-05 1.40135469424000E-05 1.44534017700000E-05 
1.49006489432000E-05 1.53554127001000E-05 1.58178193670000E-05 1.62879973931000E-05 
1.67660773864000E-05 1.72521921501000E-05 1.77464767191000E-05 1.82490683978000E-05 
1.87601067984000E-05 1.92797338791000E-05 1.98080939843000E-05 2.03453338839000E-05 
2.08916028148000E-05 2.14470525218000E-05 2.20118373002000E-05 2.25861140381000E-05 
2.31700422605000E-05 2.37637841736000E-05 2.43675047095000E-05 2.49813715722000E-05 
2.56055552841000E-05 2.62402292338000E-05 2.68855697235000E-05 2.75417560187000E-05 
2.82089703976000E-05 2.88873982018000E-05 2.95772278878000E-05 3.02786510794000E-05 
3.09918626209000E-05 3.17170606312000E-05 3.24544465589000E-05 3.32042252381000E-05 
3.39666049455000E-05 3.47417974581000E-05 3.55300181122000E-05 3.63314858631000E-05 
3.71464233457000E-05 3.79750569369000E-05 3.88176168181000E-05 3.96743370390000E-05 
4.05454555829000E-05 4.14312144329000E-05 4.23318596388000E-05 4.32476413856000E-05 
4.41788140629000E-05 4.51256363360000E-05 4.60883712169000E-05 4.70672861384000E-05 
4.80626530274000E-05 4.90747483813000E-05 5.01038533440000E-05 5.11502537848000E-05 
5.22142403770000E-05 5.32961086795000E-05 5.43961592181000E-05 5.55146975695000E-05 
5.66520344459000E-05 5.78084857817000E-05 5.89843728207000E-05 6.01800222058000E-05 
6.13957660694000E-05 6.26319421261000E-05 6.38888937660000E-05 6.51669701505000E-05 
6.64665263089000E-05 6.77879232375000E-05 6.91315279995000E-05 7.04977138270000E-05 
7.18868602248000E-05 7.32993530760000E-05 7.47355847487000E-05 7.61959542055000E-05 
7.76808671137000E-05 7.91907359590000E-05 8.07259801588000E-05 8.22870261800000E-05 
8.38743076563000E-05 8.54882655095000E-05 8.71293480716000E-05 8.87980112094000E-05 
9.04947184513000E-05 9.22199411156000E-05 9.39741584420000E-05 9.57578577244000E-05 
9.75715344462000E-05 9.94156924182000E-05 1.01290843918000E-04 1.03197509834000E-04 
1.05136219807000E-04 1.07107512381000E-04 1.09111935149000E-04 1.11150044908000E-04 
1.13222407813000E-04 1.15329599533000E-04 1.17472205414000E-04 1.19650820637000E-04 
1.21866050388000E-04 1.24118510021000E-04 1.26408825236000E-04 1.28737632244000E-04 
1.31105577952000E-04 1.33513320139000E-04 1.35961527636000E-04 1.38450880517000E-04 
1.40982070285000E-04 1.43555800065000E-04 1.46172784797000E-04 1.48833751440000E-04 
1.51539439167000E-04 1.54290599576000E-04 1.57087996896000E-04 1.59932408199000E-04 
1.62824623618000E-04 1.65765446566000E-04 1.68755693955000E-04 1.71796196430000E-04 
1.74887798594000E-04 1.78031359246000E-04 1.81227751616000E-04 1.84477863613000E-04 
1.87782598066000E-04 1.91142872977000E-04 1.94559621779000E-04 1.98033793591000E-04 
2.01566353481000E-04 2.05158282740000E-04 2.08810579149000E-04 2.12524257259000E-04 
2.16300348669000E-04 2.20139902319000E-04 2.24043984777000E-04 2.28013680534000E-04 
2.32050092309000E-04 2.36154341354000E-04 2.40327567765000E-04 2.44570930798000E-04 
2.48885609191000E-04 2.53272801496000E-04 2.57733726403000E-04 2.62269623089000E-04 
2.66881751552000E-04 2.71571392971000E-04 2.76339850053000E-04 2.81188447399000E-04 
2.86118531875000E-04 2.91131472979000E-04 2.96228663227000E-04 3.01411518539000E-04 
3.06681478630000E-04 3.12040007411000E-04 3.17488593397000E-04 3.23028750119000E-04 
3.28662016546000E-04 3.34389957509000E-04 3.40214164141000E-04 3.46136254313000E-04 
3.52157873090000E-04 3.58280693181000E-04 3.64506415409000E-04 3.70836769182000E-04 
3.77273512973000E-04 3.83818434805000E-04 3.90473352757000E-04 3.97240115458000E-04 
4.04120602609000E-04 4.11116725500000E-04 4.18230427544000E-04 4.25463684815000E-04 
4.32818506597000E-04 4.40296935944000E-04 4.47901050245000E-04 4.55632961804000E-04 
4.63494818423000E-04 4.71488804001000E-04 4.79617139142000E-04 4.87882081770000E-04 
4.96285927753000E-04 5.04831011549000E-04 5.13519706846000E-04 5.22354427227000E-04 
5.31337626837000E-04 5.40471801069000E-04 5.49759487250000E-04 5.59203265353000E-04 
5.68805758712000E-04 5.78569634746000E-04 5.88497605707000E-04 5.98592429428000E-04 
6.08856910091000E-04 6.19293899008000E-04 6.29906295409000E-04 6.40697047249000E-04 
6.51669152031000E-04 6.62825657630000E-04 6.74169663149000E-04 6.85704319772000E-04 
6.97432831645000E-04 7.09358456764000E-04 7.21484507878000E-04 7.33814353414000E-04 
7.46351418407000E-04 7.59099185457000E-04 7.72061195692000E-04 7.85241049753000E-04 
7.98642408796000E-04 8.12268995506000E-04 8.26124595135000E-04 8.40213056549000E-04 
8.54538293300000E-04 8.69104284712000E-04 8.83915076989000E-04 8.98974784334000E-04 
9.14287590097000E-04 9.29857747932000E-04 9.45689582983000E-04 9.61787493086000E-04 
9.78155949984000E-04 9.94799500576000E-04 1.01172276818000E-03 1.02893045381000E-03 
1.04642733749000E-03 1.06421827957000E-03 1.08230822211000E-03 1.10070219020000E-03 
1.11940529339000E-03 1.13842272712000E-03 1.15775977412000E-03 1.17742180592000E-03 
1.19741428432000E-03 1.21774276292000E-03 1.23841288864000E-03 1.25943040333000E-03 
1.28080114532000E-03 1.30253105105000E-03 1.32462615676000E-03 1.34709260012000E-03 
1.36993662195000E-03 1.39316456795000E-03 1.41678289049000E-03 1.44079815036000E-03 
1.46521701862000E-03 1.49004627845000E-03 1.51529282703000E-03 1.54096367744000E-03 
1.56706596064000E-03 1.59360692744000E-03 1.62059395050000E-03 1.64803452638000E-03 
1.67593627765000E-03 1.70430695496000E-03 1.73315443926000E-03 1.76248674390000E-03 
1.79231201695000E-03 1.82263854339000E-03 1.85347474745000E-03 1.88482919495000E-03 
1.91671059565000E-03 1.94912780570000E-03 1.98208983009000E-03 2.01560582516000E-03 
2.04968510112000E-03 2.08433712464000E-03 2.11957152152000E-03 2.15539807932000E-03 
2.19182675008000E-03 2.22886765312000E-03 2.26653107781000E-03 2.30482748647000E-03 
2.34376751721000E-03 2.38336198698000E-03 2.42362189450000E-03 2.46455842331000E-03 
2.50618294496000E-03 2.54850702207000E-03 2.59154241160000E-03 2.63530106811000E-03 
2.67979514705000E-03 2.72503700819000E-03 2.77103921899000E-03 2.81781455815000E-03 
2.86537601911000E-03 2.91373681369000E-03 2.96291037577000E-03 3.01291036498000E-03 
3.06375067053000E-03 3.11544541504000E-03 3.16800895852000E-03 3.22145590227000E-03 
3.27580109301000E-03 3.33105962699000E-03 3.38724685415000E-03 3.44437838240000E-03 
3.50247008200000E-03 3.56153808990000E-03 3.62159881425000E-03 3.68266893897000E-03 
3.74476542839000E-03 3.80790553193000E-03 3.87210678891000E-03 3.93738703342000E-03 
4.00376439929000E-03 4.07125732510000E-03 4.13988455932000E-03 4.20966516551000E-03 
4.28061852763000E-03 4.35276435539000E-03 4.42612268977000E-03 4.50071390855000E-03 
4.57655873200000E-03 4.65367822861000E-03 4.73209382096000E-03 4.81182729166000E-03 
4.89290078941000E-03 4.97533683515000E-03 5.05915832832000E-03 5.14438855319000E-03 
5.23105118537000E-03 5.31917029839000E-03 5.40877037033000E-03 5.49987629069000E-03 
5.59251336724000E-03 5.68670733311000E-03 5.78248435389000E-03 5.87987103492000E-03 
5.97889442869000E-03 6.07958204233000E-03 6.18196184527000E-03 6.28606227701000E-03 
6.39191225499000E-03 6.49954118268000E-03 6.60897895768000E-03 6.72025598008000E-03 
6.83340316089000E-03 6.94845193061000E-03 7.06543424795000E-03 7.18438260877000E-03 
7.30533005505000E-03 7.42831018406000E-03 7.55335715775000E-03 7.68050571220000E-03 
7.80979116726000E-03 7.94124943639000E-03 8.07491703663000E-03 8.21083109871000E-03 
8.34902937743000E-03 8.48955026208000E-03 8.63243278715000E-03 8.77771664313000E-03 
8.92544218760000E-03 9.07565045638000E-03 9.22838317495000E-03 9.38368277004000E-03 
9.54159238144000E-03 9.70215587394000E-03 9.86541784955000E-03 1.00314236599000E-02 
1.02002194187000E-02 1.03718520147000E-02 1.05463691249000E-02 1.07238192274000E-02 
1.09042516148000E-02 1.10877164086000E-02 1.12742645723000E-02 1.14639479261000E-02 
1.16568191610000E-02 1.18529318536000E-02 1.20523404809000E-02 1.22551004355000E-02 
1.24612680409000E-02 1.26709005671000E-02 1.28840562469000E-02 1.31007942914000E-02 
1.33211749071000E-02 1.35452593123000E-02 1.37731097540000E-02 1.40047895255000E-02 
1.42403629838000E-02 1.44798955674000E-02 1.47234538148000E-02 1.49711053826000E-02 
1.52229190644000E-02 1.54789648102000E-02 1.57393137453000E-02 1.60040381907000E-02 
1.62732116826000E-02 1.65469089931000E-02 1.68252061510000E-02 1.71081804630000E-02 
1.73959105347000E-02 1.76884762930000E-02 1.79859590081000E-02 1.82884413161000E-02 
1.85960072416000E-02 1.89087422217000E-02 1.92267331292000E-02 1.95500682969000E-02 
1.98788375423000E-02 2.02131321923000E-02 2.05530451086000E-02 2.08986707137000E-02 
2.12501050168000E-02 2.16074456410000E-02 2.19707918498000E-02 2.23402445750000E-02 
2.27159064448000E-02 2.30978818120000E-02 2.34862767835000E-02 2.38811992492000E-02 
2.42827589123000E-02 2.46910673198000E-02 2.51062378933000E-02 2.55283859606000E-02 
2.59576287879000E-02 2.63940856118000E-02 2.68378776734000E-02 2.72891282510000E-02 
2.77479626948000E-02 2.82145084620000E-02 2.86888951514000E-02 2.91712545402000E-02 
2.96617206204000E-02 3.01604296355000E-02 3.06675201190000E-02 3.11831329328000E-02 
3.17074113059000E-02 3.22405008745000E-02 3.27825497226000E-02 3.33337084226000E-02 
3.38941300779000E-02 3.44639703647000E-02 3.50433875756000E-02 3.56325426635000E-02 
3.62315992866000E-02 3.68407238531000E-02 3.74600855684000E-02 3.80898564813000E-02 
3.87302115322000E-02 3.93813286017000E-02 4.00433885597000E-02 4.07165753162000E-02 
4.14010758717000E-02 4.20970803697000E-02 4.28047821492000E-02 4.35243777986000E-02 
4.42560672103000E-02 4.50000536359000E-02 4.57565437433000E-02 4.65257476733000E-02 
4.73078790987000E-02 4.81031552832000E-02 4.89117971420000E-02 4.97340293031000E-02 
5.05700801696000E-02 5.14201819831000E-02 5.22845708885000E-02 5.31634869995000E-02 
5.40571744651000E-02 5.49658815374000E-02 5.58898606410000E-02 5.68293684427000E-02 
5.77846659229000E-02 5.87560184482000E-02 5.97436958450000E-02 6.07479724744000E-02 
6.17691273086000E-02 6.28074440083000E-02 6.38632110016000E-02 6.49367215637000E-02 
6.60282738991000E-02 6.71381712236000E-02 6.82667218492000E-02 6.94142392695000E-02 
7.05810422467000E-02 7.17674549003000E-02 7.29738067968000E-02 7.42004330419000E-02 
7.54476743730000E-02 7.67158772539000E-02 7.80053939714000E-02 7.93165827329000E-02 
8.06498077660000E-02 8.20054394194000E-02 8.33838542663000E-02 8.47854352085000E-02 
8.62105715831000E-02 8.76596592704000E-02 8.91331008042000E-02 9.06313054832000E-02 
9.21546894850000E-02 9.37036759816000E-02 9.52786952571000E-02 9.68801848269000E-02 
9.85085895595000E-02 1.00164361800000E-01 1.01847961496000E-01 1.03559856325000E-01 
1.05300521823000E-01 1.07070441521000E-01 1.08870107075000E-01 1.10700018402000E-01 
1.12560683823000E-01 1.14452620203000E-01 1.16376353090000E-01 1.18332416868000E-01 
1.20321354900000E-01 1.22343719681000E-01 1.24400072993000E-01 1.26490986059000E-01 
1.28617039700000E-01 1.30778824501000E-01 1.32976940971000E-01 1.35211999714000E-01 
1.37484621591000E-01 1.39795437903000E-01 1.42145090558000E-01 1.44534232251000E-01 
1.46963526649000E-01 1.49433648571000E-01 1.51945284178000E-01 1.54499131163000E-01 
1.57095898945000E-01 1.59736308863000E-01 1.62421094383000E-01 1.65151001296000E-01 
1.67926787926000E-01 1.70749225343000E-01 1.73619097575000E-01 1.76537201829000E-01 
1.79504348707000E-01 1.82521362436000E-01 1.85589081094000E-01 1.88708356845000E-01 
1.91880056176000E-01 1.95105060133000E-01 1.98384264572000E-01 2.01718580404000E-01 
2.05108933850000E-01 2.08556266696000E-01 2.12061536557000E-01 2.15625717141000E-01 
2.19249798522000E-01 2.22934787411000E-01 2.26681707442000E-01 2.30491599448000E-01 
2.34365521758000E-01 2.38304550486000E-01 2.42309779833000E-01 2.46382322387000E-01 
2.50523309437000E-01 2.54733891284000E-01 2.59015237560000E-01 2.63368537556000E-01 
2.67795000550000E-01 2.72295856143000E-01 2.76872354603000E-01 2.81525767208000E-01 
2.86257386602000E-01 2.91068527155000E-01 2.95960525326000E-01 3.00934740035000E-01 
3.05992553039000E-01 3.11135369320000E-01 3.16364617470000E-01 3.21681750092000E-01 
3.27088244202000E-01 3.32585601638000E-01 3.38175349479000E-01 3.43859040470000E-01 
3.49638253449000E-01 3.55514593790000E-01 3.61489693849000E-01 3.67565213414000E-01 
3.73742840167000E-01 3.80024290157000E-01 3.86411308271000E-01 3.92905668721000E-01 
3.99509175539000E-01 4.06223663074000E-01 4.13050996505000E-01 4.19993072357000E-01 
4.27051819030000E-01 4.34229197331000E-01 4.41527201023000E-01 4.48947857376000E-01 
4.56493227732000E-01 4.64165408075000E-01 4.71966529616000E-01 4.79898759382000E-01 
4.87964300823000E-01 4.96165394418000E-01 5.04504318301000E-01 5.12983388894000E-01 
5.21604961549000E-01 5.30371431203000E-01 5.39285233041000E-01 5.48348843179000E-01 
5.57564779343000E-01 5.66935601575000E-01 5.76463912941000E-01 5.86152360256000E-01 
5.96003634818000E-01 6.06020473154000E-01 6.16205657786000E-01 6.26562017995000E-01 
6.37092430615000E-01 6.47799820829000E-01 6.58687162981000E-01 6.69757481402000E-01 
6.81013851251000E-01 6.92459399372000E-01 7.04097305155000E-01 7.15930801428000E-01 
7.27963175349000E-01 7.40197769322000E-01 7.52637981922000E-01 7.65287268846000E-01 
7.78149143866000E-01 7.91227179806000E-01 8.04525009539000E-01 8.18046326991000E-01 
8.31794888173000E-01 8.45774512215000E-01 8.59989082439000E-01 8.74442547425000E-01 
8.89138922119000E-01 9.04082288942000E-01 9.19276798925000E-01 9.34726672863000E-01 
9.50436202486000E-01 9.66409751655000E-01 9.82651757568000E-01 9.99166731999000E-01 
1.01595926255000E+00 1.03303401391000E+00 1.05039572919000E+00 1.06804923119000E+00 
1.08599942377000E+00 1.10425129323000E+00 1.12280990963000E+00 1.14168042827000E+00 
1.16086809108000E+00 1.18037822809000E+00 1.20021625891000E+00 1.22038769423000E+00 
1.24089813736000E+00 1.26175328577000E+00 1.28295893270000E+00 1.30452096873000E+00 
1.32644538347000E+00 1.34873826716000E+00 1.37140581242000E+00 1.39445431594000E+00 
1.41789018022000E+00 1.44171991537000E+00 1.46595014094000E+00 1.49058758767000E+00 
1.51563909948000E+00 1.54111163527000E+00 1.56701227091000E+00 1.59334820120000E+00 
1.62012674182000E+00 1.64735533145000E+00 1.67504153376000E+00 1.70319303952000E+00 
1.73181766879000E+00 1.76092337304000E+00 1.79051823737000E+00 1.82061048277000E+00 
1.85120846839000E+00 1.88232069386000E+00 1.91395580167000E+00 1.94612257956000E+00 
1.97882996294000E+00 2.01208703742000E+00 2.04590304127000E+00 2.08028736806000E+00 
2.11524956920000E+00 2.15079935665000E+00 2.18694660557000E+00 2.22370135710000E+00 
2.26107382113000E+00 2.29907437913000E+00 2.33771358707000E+00 2.37700217830000E+00 
2.41695106658000E+00 2.45757134907000E+00 2.49887430945000E+00 2.54087142102000E+00 
2.58357434993000E+00 2.62699495837000E+00 2.67114530790000E+00 2.71603766280000E+00 
2.76168449344000E+00 2.80809847980000E+00 2.85529251494000E+00 2.90327970864000E+00 
2.95207339096000E+00 3.00168711603000E+00 3.05213466576000E+00 3.10343005368000E+00 
3.15558752883000E+00 3.20862157974000E+00 3.26254693843000E+00 3.31737858452000E+00 
3.37313174936000E+00 3.42982192032000E+00 3.48746484501000E+00 3.54607653575000E+00 
3.60567327392000E+00 3.66627161457000E+00 3.72788839095000E+00 3.79054071923000E+00 
3.85424600323000E+00 3.91902193929000E+00 3.98488652113000E+00 4.05185804490000E+00 
4.11995511422000E+00 4.18919664538000E+00 4.25960187260000E+00 4.33119035332000E+00 
4.40398197370000E+00 4.47799695411000E+00 4.55325585472000E+00 4.62977958129000E+00 
4.70758939089000E+00 4.78670689785000E+00 4.86715407978000E+00 4.94895328362000E+00 
5.03212723191000E+00 5.11669902906000E+00 5.20269216776000E+00 5.29013053557000E+00 
5.37903842148000E+00 5.46944052269000E+00 5.56136195148000E+00 5.65482824217000E+00 
5.74986535822000E+00 5.84649969945000E+00 5.94475810934000E+00 6.04466788253000E+00 
6.14625677238000E+00 6.24955299867000E+00 6.35458525547000E+00 6.46138271908000E+00 
6.56997505615000E+00 6.68039243191000E+00 6.79266551857000E+00 6.90682550382000E+00 
7.02290409949000E+00 7.14093355040000E+00 7.26094664325000E+00 7.38297671579000E+00 
7.50705766605000E+00 7.63322396176000E+00 7.76151064991000E+00 7.89195336653000E+00 
8.02458834653000E+00 8.15945243384000E+00 8.29658309155000E+00 8.43601841240000E+00 
8.57779712933000E+00 8.72195862621000E+00 8.86854294883000E+00 9.01759081601000E+00 
9.16914363089000E+00 9.32324349245000E+00 9.47993320720000E+00 9.63925630105000E+00 
9.80125703147000E+00 9.96598039968000E+00 1.01334721632000E+01 1.03037788487000E+01 
1.04769477646000E+01 1.06530270145000E+01 1.08320655105000E+01 1.10141129865000E+01 
1.11992200126000E+01 1.13874380086000E+01 1.15788192584000E+01 1.17734169246000E+01 
1.19712850636000E+01 1.21724786398000E+01 1.23770535418000E+01 1.25850665972000E+01 
1.27965755887000E+01 1.30116392702000E+01 1.32303173830000E+01 1.34526706724000E+01 
1.36787609046000E+01 1.39086508840000E+01 1.41424044703000E+01 1.43800865966000E+01 
1.46217632873000E+01 1.48675016763000E+01 1.51173700258000E+01 1.53714377454000E+01 
1.56297754110000E+01 1.58924547847000E+01 1.61595488348000E+01 1.64311317558000E+01 
1.67072789890000E+01 1.69880672439000E+01 1.72735745189000E+01 1.75638801236000E+01 
1.78590647002000E+01 1.81592102462000E+01 1.84644001375000E+01 1.87747191510000E+01 
1.90902534883000E+01 1.94110907999000E+01 1.97373202094000E+01 2.00690323381000E+01 
2.04063193304000E+01 2.07492748794000E+01 2.10979942526000E+01 2.14525743189000E+01 
2.18131135749000E+01 2.21797121727000E+01 2.25524719477000E+01 2.29314964466000E+01 
2.33168909565000E+01 2.37087625338000E+01 2.41072200343000E+01 2.45123741433000E+01 
2.49243374060000E+01 2.53432242594000E+01 2.57691510637000E+01 2.62022361346000E+01 
2.66425997763000E+01 2.70903643148000E+01 2.75456541321000E+01 2.80085957005000E+01 
2.84793176178000E+01 2.89579506432000E+01 2.94446277334000E+01 2.99394840795000E+01 
3.04426571449000E+01 3.09542867031000E+01 3.14745148766000E+01 3.20034861767000E+01 
3.25413475432000E+01 3.30882483856000E+01 3.36443406242000E+01 3.42097787327000E+01 
3.47847197809000E+01 3.53693234782000E+01 3.59637522185000E+01 3.65681711245000E+01 
3.71827480944000E+01 3.78076538479000E+01 3.84430619739000E+01 3.90891489789000E+01 
3.97460943355000E+01 4.04140805328000E+01 4.10932931268000E+01 4.17839207921000E+01 
4.24861553741000E+01 4.32001919425000E+01 4.39262288454000E+01 4.46644677643000E+01 
4.54151137704000E+01 4.61783753813000E+01 4.69544646190000E+01 4.77435970688000E+01 
4.85459919393000E+01 4.93618721231000E+01 5.01914642589000E+01 5.10349987941000E+01 
5.18927100494000E+01 5.27648362835000E+01 5.36516197592000E+01 5.45533068110000E+01 
5.54701479132000E+01 5.64023977500000E+01 5.73503152855000E+01 5.83141638363000E+01 
5.92942111442000E+01 6.02907294511000E+01 6.13039955738000E+01 6.23342909817000E+01 
6.33819018747000E+01 6.44471192625000E+01 6.55302390456000E+01 6.66315620976000E+01 
6.77513943487000E+01 6.88900468706000E+01 7.00478359630000E+01 7.12250832413000E+01 
7.24221157264000E+01 7.36392659349000E+01 7.48768719720000E+01 7.61352776250000E+01 
7.74148324591000E+01 7.87158919146000E+01 8.00388174051000E+01 8.13839764184000E+01 
8.27517426186000E+01 8.41424959494000E+01 8.55566227402000E+01 8.69945158131000E+01 
8.84565745919000E+01 8.99432052137000E+01 9.14548206409000E+01 9.29918407763000E+01 
9.45546925800000E+01 9.61438101874000E+01 9.77596350303000E+01 9.94026159594000E+01 
1.01073209369000E+02 1.02771879323000E+02 1.04499097686000E+02 1.06255344251000E+02 
1.08041106876000E+02 1.09856881618000E+02 1.11703172870000E+02 1.13580493502000E+02 
1.15489365006000E+02 1.17430317635000E+02 1.19403890555000E+02 1.21410631993000E+02 
1.23451099391000E+02 1.25525859558000E+02 1.27635488830000E+02 1.29780573229000E+02 
1.31961708625000E+02 1.34179500903000E+02 1.36434566130000E+02 1.38727530729000E+02 
1.41059031648000E+02 1.43429716543000E+02 1.45840243950000E+02 1.48291283478000E+02 
1.50783515986000E+02 
</PP_R>
    <PP_RAB>
2.02640436790000E-07 2.06046078920000E-07 2.09508957397000E-07 2.13030034154000E-07 
2.16610287290000E-07 2.20250711344000E-07 2.23952317566000E-07 2.27716134206000E-07 
2.31543206792000E-07 2.35434598424000E-07 2.39391390069000E-07 2.43414680863000E-07 
2.47505588410000E-07 2.51665249101000E-07 2.55894818424000E-07 2.60195471287000E-07 
2.64568402342000E-07 2.69014826322000E-07 2.73535978372000E-07 2.78133114397000E-07 
2.82807511409000E-07 2.87560467881000E-07 2.92393304111000E-07 2.97307362582000E-07 
3.02304008344000E-07 3.07384629385000E-07 3.12550637022000E-07 3.17803466291000E-07 
3.23144576343000E-07 3.28575450856000E-07 3.34097598439000E-07 3.39712553060000E-07 
3.45421874463000E-07 3.51227148608000E-07 3.57129988108000E-07 3.63132032679000E-07 
3.69234949594000E-07 3.75440434147000E-07 3.81750210124000E-07 3.88166030280000E-07 
3.94689676830000E-07 4.01322961939000E-07 4.08067728229000E-07 4.14925849289000E-07 
4.21899230198000E-07 4.28989808051000E-07 4.36199552497000E-07 4.43530466291000E-07 
4.50984585843000E-07 4.58563981792000E-07 4.66270759574000E-07 4.74107060008000E-07 
4.82075059897000E-07 4.90176972625000E-07 4.98415048775000E-07 5.06791576754000E-07 
5.15308883430000E-07 5.23969334776000E-07 5.32775336528000E-07 5.41729334855000E-07 
5.50833817037000E-07 5.60091312154000E-07 5.69504391793000E-07 5.79075670757000E-07 
5.88807807799000E-07 5.98703506351000E-07 6.08765515282000E-07 6.18996629659000E-07 
6.29399691525000E-07 6.39977590686000E-07 6.50733265515000E-07 6.61669703769000E-07 
6.72789943417000E-07 6.84097073486000E-07 6.95594234920000E-07 7.07284621447000E-07 
7.19171480472000E-07 7.31258113977000E-07 7.43547879438000E-07 7.56044190758000E-07 
7.68750519214000E-07 7.81670394425000E-07 7.94807405327000E-07 8.08165201174000E-07 
8.21747492552000E-07 8.35558052406000E-07 8.49600717091000E-07 8.63879387439000E-07 
8.78398029838000E-07 8.93160677338000E-07 9.08171430770000E-07 9.23434459883000E-07 
9.38954004506000E-07 9.54734375723000E-07 9.70779957072000E-07 9.87095205763000E-07 
1.00368465391000E-06 1.02055290981000E-06 1.03770465919000E-06 1.05514466654000E-06 
1.07287777641000E-06 1.09090891478000E-06 1.10924309042000E-06 1.12788539628000E-06 
1.14684101089000E-06 1.16611519982000E-06 1.18571331713000E-06 1.20564080689000E-06 
1.22590320461000E-06 1.24650613889000E-06 1.26745533289000E-06 1.28875660596000E-06 
1.31041587527000E-06 1.33243915742000E-06 1.35483257011000E-06 1.37760233391000E-06 
1.40075477387000E-06 1.42429632139000E-06 1.44823351594000E-06 1.47257300688000E-06 
1.49732155535000E-06 1.52248603611000E-06 1.54807343944000E-06 1.57409087312000E-06 
1.60054556439000E-06 1.62744486195000E-06 1.65479623798000E-06 1.68260729028000E-06 
1.71088574431000E-06 1.73963945538000E-06 1.76887641082000E-06 1.79860473220000E-06 
1.82883267756000E-06 1.85956864376000E-06 1.89082116876000E-06 1.92259893403000E-06 
1.95491076691000E-06 1.98776564314000E-06 2.02117268927000E-06 2.05514118525000E-06 
2.08968056700000E-06 2.12480042901000E-06 2.16051052702000E-06 2.19682078074000E-06 
2.23374127659000E-06 2.27128227048000E-06 2.30945419072000E-06 2.34826764086000E-06 
2.38773340266000E-06 2.42786243910000E-06 2.46866589739000E-06 2.51015511207000E-06 
2.55234160821000E-06 2.59523710453000E-06 2.63885351674000E-06 2.68320296079000E-06 
2.72829775624000E-06 2.77415042972000E-06 2.82077371838000E-06 2.86818057344000E-06 
2.91638416376000E-06 2.96539787955000E-06 3.01523533604000E-06 3.06591037729000E-06 
3.11743708003000E-06 3.16982975756000E-06 3.22310296373000E-06 3.27727149701000E-06 
3.33235040455000E-06 3.38835498641000E-06 3.44530079978000E-06 3.50320366330000E-06 
3.56207966148000E-06 3.62194514913000E-06 3.68281675595000E-06 3.74471139110000E-06 
3.80764624794000E-06 3.87163880878000E-06 3.93670684973000E-06 4.00286844568000E-06 
4.07014197527000E-06 4.13854612603000E-06 4.20809989954000E-06 4.27882261675000E-06 
4.35073392331000E-06 4.42385379505000E-06 4.49820254351000E-06 4.57380082160000E-06 
4.65066962933000E-06 4.72883031964000E-06 4.80830460433000E-06 4.88911456011000E-06 
4.97128263470000E-06 5.05483165311000E-06 5.13978482391000E-06 5.22616574578000E-06 
5.31399841396000E-06 5.40330722697000E-06 5.49411699341000E-06 5.58645293878000E-06 
5.68034071256000E-06 5.77580639528000E-06 5.87287650581000E-06 5.97157800868000E-06 
6.07193832162000E-06 6.17398532314000E-06 6.27774736028000E-06 6.38325325650000E-06 
6.49053231967000E-06 6.59961435021000E-06 6.71052964940000E-06 6.82330902776000E-06 
6.93798381361000E-06 7.05458586179000E-06 7.17314756252000E-06 7.29370185037000E-06 
7.41628221341000E-06 7.54092270252000E-06 7.66765794088000E-06 7.79652313352000E-06 
7.92755407717000E-06 8.06078717014000E-06 8.19625942250000E-06 8.33400846628000E-06 
8.47407256601000E-06 8.61649062927000E-06 8.76130221756000E-06 8.90854755724000E-06 
9.05826755075000E-06 9.21050378793000E-06 9.36529855762000E-06 9.52269485934000E-06 
9.68273641532000E-06 9.84546768255000E-06 1.00109338652000E-05 1.01791809272000E-05 
1.03502556050000E-05 1.05242054203000E-05 1.07010786936000E-05 1.08809245576000E-05 
1.10637929706000E-05 1.12497347306000E-05 1.14388014893000E-05 1.16310457663000E-05 
1.18265209642000E-05 1.20252813828000E-05 1.22273822348000E-05 1.24328796604000E-05 
1.26418307436000E-05 1.28542935277000E-05 1.30703270317000E-05 1.32899912660000E-05 
1.35133472500000E-05 1.37404570286000E-05 1.39713836890000E-05 1.42061913793000E-05 
1.44449453251000E-05 1.46877118487000E-05 1.49345583866000E-05 1.51855535090000E-05 
1.54407669384000E-05 1.57002695690000E-05 1.59641334865000E-05 1.62324319882000E-05 
1.65052396032000E-05 1.67826321131000E-05 1.70646865731000E-05 1.73514813336000E-05 
1.76430960616000E-05 1.79396117630000E-05 1.82411108053000E-05 1.85476769401000E-05 
1.88593953267000E-05 1.91763525554000E-05 1.94986366721000E-05 1.98263372021000E-05 
2.01595451754000E-05 2.04983531521000E-05 2.08428552475000E-05 2.11931471590000E-05 
2.15493261921000E-05 2.19114912877000E-05 2.22797430495000E-05 2.26541837721000E-05 
2.30349174692000E-05 2.34220499026000E-05 2.38156886116000E-05 2.42159429428000E-05 
2.46229240805000E-05 2.50367450777000E-05 2.54575208873000E-05 2.58853683941000E-05 
2.63204064475000E-05 2.67627558942000E-05 2.72125396118000E-05 2.76698825431000E-05 
2.81349117309000E-05 2.86077563528000E-05 2.90885477577000E-05 2.95774195018000E-05 
3.00745073859000E-05 3.05799494932000E-05 3.10938862276000E-05 3.16164603526000E-05 
3.21478170309000E-05 3.26881038651000E-05 3.32374709384000E-05 3.37960708562000E-05 
3.43640587887000E-05 3.49415925141000E-05 3.55288324622000E-05 3.61259417588000E-05 
3.67330862715000E-05 3.73504346554000E-05 3.79781584003000E-05 3.86164318779000E-05 
3.92654323904000E-05 3.99253402199000E-05 4.05963386784000E-05 4.12786141587000E-05 
4.19723561861000E-05 4.26777574713000E-05 4.33950139635000E-05 4.41243249053000E-05 
4.48658928877000E-05 4.56199239066000E-05 4.63866274200000E-05 4.71662164059000E-05 
4.79589074219000E-05 4.87649206650000E-05 4.95844800330000E-05 5.04178131864000E-05 
5.12651516122000E-05 5.21267306875000E-05 5.30027897454000E-05 5.38935721413000E-05 
5.47993253204000E-05 5.57203008866000E-05 5.66567546726000E-05 5.76089468102000E-05 
5.85771418035000E-05 5.95616086017000E-05 6.05626206742000E-05 6.15804560863000E-05 
6.26153975767000E-05 6.36677326356000E-05 6.47377535852000E-05 6.58257576604000E-05 
6.69320470916000E-05 6.80569291885000E-05 6.92007164255000E-05 7.03637265287000E-05 
7.15462825639000E-05 7.27487130266000E-05 7.39713519329000E-05 7.52145389126000E-05 
7.64786193034000E-05 7.77639442469000E-05 7.90708707861000E-05 8.03997619644000E-05 
8.17509869270000E-05 8.31249210227000E-05 8.45219459087000E-05 8.59424496566000E-05 
8.73868268597000E-05 8.88554787433000E-05 9.03488132757000E-05 9.18672452816000E-05 
9.34111965575000E-05 9.49810959886000E-05 9.65773796682000E-05 9.82004910188000E-05 
9.98508809149000E-05 1.01529007809000E-04 1.03235337858000E-04 1.04970345054000E-04 