<UPF version="2.0.1">
  <PP_INFO>
Generated using Vanderbilt code, version   7  3  6
Author: kfg    Generation date:   23    7 2013
Automatically converted from original format
1        The Pseudo was generated with a Scalar-Relativistic Calculation
2.10000000000E+00    Local Potential cutoff radius
nl pn  l   occ               Rcut            Rcut US             E pseu
3S  3  0  2.00      0.00000000000      2.20000000000     -4.03322814700
3P  3  1  6.00      0.00000000000      2.20000000000     -2.46577769300
4S  4  0  2.00      0.00000000000      2.20000000000     -0.30782953400
3D  3  2  1.00      0.00000000000      2.20000000000     -0.23861715400
4P  4  1  0.00      0.00000000000      2.20000000000     -0.10661135500
</PP_INFO>
  <PP_HEADER element="Sc" pseudo_type="US" relativistic="scalar" is_ultrasoft="T" is_paw="F" is_coulomb="F" has_so="F" has_wfc="F" has_gipaw="F" core_correction="T" functional="PBESOL" z_valence="11.0" total_psenergy="-93.8817594028" wfc_cutoff="0.0" rho_cutoff="0.0" l_max="2" mesh_size="849" number_of_wfc="5" number_of_proj="6"/>
  <PP_MESH>
    <PP_R>
0.00000000000000E+00 2.01765757524000E-06 4.06980419085000E-06 6.15702938885000E-06 
8.27993278866000E-06 1.04391242593000E-05 1.26352240948000E-05 1.48688631920000E-05 
1.71406832324000E-05 1.94513368657000E-05 2.18014878981000E-05 2.41918114825000E-05 
2.66229943126000E-05 2.90957348202000E-05 3.16107433758000E-05 3.41687424926000E-05 
3.67704670344000E-05 3.94166644263000E-05 4.21080948694000E-05 4.48455315598000E-05 
4.76297609101000E-05 5.04615827753000E-05 5.33418106832000E-05 5.62712720675000E-05 
5.92508085058000E-05 6.22812759612000E-05 6.53635450284000E-05 6.84985011837000E-05 
7.16870450392000E-05 7.49300926020000E-05 7.82285755368000E-05 8.15834414340000E-05 
8.49956540815000E-05 8.84661937422000E-05 9.19960574349000E-05 9.55862592210000E-05 
9.92378304961000E-05 1.02951820286000E-04 1.06729295548000E-04 1.10571341478000E-04 
1.14479061821000E-04 1.18453579189000E-04 1.22496035385000E-04 1.26607591728000E-04 
1.30789429389000E-04 1.35042749728000E-04 1.39368774642000E-04 1.43768746915000E-04 
1.48243930573000E-04 1.52795611251000E-04 1.57425096557000E-04 1.62133716453000E-04 
1.66922823635000E-04 1.71793793920000E-04 1.76748026645000E-04 1.81786945064000E-04 
1.86911996760000E-04 1.92124654063000E-04 1.97426414468000E-04 2.02818801068000E-04 
2.08303362990000E-04 2.13881675845000E-04 2.19555342173000E-04 2.25325991908000E-04 
2.31195282847000E-04 2.37164901123000E-04 2.43236561692000E-04 2.49412008825000E-04 
2.55693016609000E-04 2.62081389454000E-04 2.68578962618000E-04 2.75187602727000E-04 
2.81909208315000E-04 2.88745710370000E-04 2.95699072887000E-04 3.02771293431000E-04 
3.09964403716000E-04 3.17280470182000E-04 3.24721594594000E-04 3.32289914643000E-04 
3.39987604561000E-04 3.47816875745000E-04 3.55779977393000E-04 3.63879197150000E-04 
3.72116861766000E-04 3.80495337762000E-04 3.89017032112000E-04 3.97684392934000E-04 
4.06499910192000E-04 4.15466116415000E-04 4.24585587421000E-04 4.33860943055000E-04 
4.43294847950000E-04 4.52890012283000E-04 4.62649192558000E-04 4.72575192401000E-04 
4.82670863358000E-04 4.92939105720000E-04 5.03382869355000E-04 5.14005154554000E-04 
5.24809012894000E-04 5.35797548114000E-04 5.46973917008000E-04 5.58341330330000E-04 
5.69903053719000E-04 5.81662408633000E-04 5.93622773308000E-04 6.05787583725000E-04 
6.18160334598000E-04 6.30744580381000E-04 6.43543936282000E-04 6.56562079309000E-04 
6.69802749323000E-04 6.83269750112000E-04 6.96966950485000E-04 7.10898285382000E-04 
7.25067757007000E-04 7.39479435974000E-04 7.54137462479000E-04 7.69046047491000E-04 
7.84209473957000E-04 7.99632098036000E-04 8.15318350350000E-04 8.31272737255000E-04 
8.47499842138000E-04 8.64004326733000E-04 8.80790932457000E-04 8.97864481779000E-04 
9.15229879599000E-04 9.32892114658000E-04 9.50856260977000E-04 9.69127479305000E-04 
9.87711018612000E-04 1.00661221759000E-03 1.02583650618000E-03 1.04538940716000E-03 
1.06527653769000E-03 1.08550361096000E-03 1.10607643782000E-03 1.12700092845000E-03 
1.14828309404000E-03 1.16992904854000E-03 1.19194501044000E-03 1.21433730447000E-03 
1.23711236352000E-03 1.26027673042000E-03 1.28383705984000E-03 1.30780012021000E-03 
1.33217279566000E-03 1.35696208798000E-03 1.38217511865000E-03 1.40781913090000E-03 
1.43390149175000E-03 1.46042969415000E-03 1.48741135915000E-03 1.51485423806000E-03 
1.54276621468000E-03 1.57115530759000E-03 1.60002967243000E-03 1.62939760423000E-03 
1.65926753984000E-03 1.68964806031000E-03 1.72054789338000E-03 1.75197591597000E-03 
1.78394115675000E-03 1.81645279871000E-03 1.84952018181000E-03 1.88315280568000E-03 
1.91736033231000E-03 1.95215258888000E-03 1.98753957051000E-03 2.02353144320000E-03 
2.06013854673000E-03 2.09737139761000E-03 2.13524069211000E-03 2.17375730934000E-03 
2.21293231439000E-03 2.25277696149000E-03 2.29330269721000E-03 2.33452116383000E-03 
2.37644420261000E-03 2.41908385723000E-03 2.46245237724000E-03 2.50656222157000E-03 
2.55142606214000E-03 2.59705678744000E-03 2.64346750631000E-03 2.69067155164000E-03 
2.73868248426000E-03 2.78751409676000E-03 2.83718041752000E-03 2.88769571473000E-03 
2.93907450044000E-03 2.99133153479000E-03 3.04448183021000E-03 3.09854065575000E-03 
3.15352354147000E-03 3.20944628289000E-03 3.26632494552000E-03 3.32417586951000E-03 
3.38301567431000E-03 3.44286126346000E-03 3.50372982943000E-03 3.56563885858000E-03 
3.62860613619000E-03 3.69264975153000E-03 3.75778810310000E-03 3.82403990388000E-03 
3.89142418673000E-03 3.95996030985000E-03 4.02966796235000E-03 4.10056716988000E-03 
4.17267830042000E-03 4.24602207009000E-03 4.32061954915000E-03 4.39649216800000E-03 
4.47366172339000E-03 4.55215038462000E-03 4.63198069998000E-03 4.71317560316000E-03 
4.79575841990000E-03 4.87975287464000E-03 4.96518309736000E-03 5.05207363051000E-03 
5.14044943605000E-03 5.23033590266000E-03 5.32175885296000E-03 5.41474455101000E-03 
5.50931970979000E-03 5.60551149892000E-03 5.70334755245000E-03 5.80285597676000E-03 
5.90406535871000E-03 6.00700477380000E-03 6.11170379453000E-03 6.21819249890000E-03 
6.32650147905000E-03 6.43666185005000E-03 6.54870525886000E-03 6.66266389338000E-03 
6.77857049170000E-03 6.89645835157000E-03 7.01636133988000E-03 7.13831390243000E-03 
7.26235107384000E-03 7.38850848758000E-03 7.51682238625000E-03 7.64732963194000E-03 
7.78006771686000E-03 7.91507477408000E-03 8.05238958854000E-03 8.19205160810000E-03 
8.33410095498000E-03 8.47857843720000E-03 8.62552556034000E-03 8.77498453946000E-03 
8.92699831125000E-03 9.08161054632000E-03 9.23886566177000E-03 9.39880883394000E-03 
9.56148601143000E-03 9.72694392823000E-03 9.89523011720000E-03 1.00663929237000E-02 
1.02404815195000E-02 1.04175459169000E-02 1.05976369831000E-02 1.07808064547000E-02 
1.09671069528000E-02 1.11565919978000E-02 1.13493160253000E-02 1.15453344011000E-02 
1.17447034374000E-02 1.19474804092000E-02 1.21537235703000E-02 1.23634921704000E-02 
1.25768464720000E-02 1.27938477676000E-02 1.30145583975000E-02 1.32390417676000E-02 
1.34673623676000E-02 1.36995857896000E-02 1.39357787469000E-02 1.41760090932000E-02 
1.44203458420000E-02 1.46688591865000E-02 1.49216205198000E-02 1.51787024554000E-02 
1.54401788478000E-02 1.57061248143000E-02 1.59766167559000E-02 1.62517323797000E-02 
1.65315507212000E-02 1.68161521667000E-02 1.71056184767000E-02 1.74000328093000E-02 
1.76994797440000E-02 1.80040453062000E-02 1.83138169916000E-02 1.86288837916000E-02 
1.89493362189000E-02 1.92752663332000E-02 1.96067677679000E-02 1.99439357570000E-02 
2.02868671623000E-02 2.06356605014000E-02 2.09904159758000E-02 2.13512355000000E-02 
2.17182227304000E-02 2.20914830953000E-02 2.24711238252000E-02 2.28572539835000E-02 
2.32499844981000E-02 2.36494281926000E-02 2.40556998197000E-02 2.44689160932000E-02 
2.48891957223000E-02 2.53166594450000E-02 2.57514300635000E-02 2.61936324790000E-02 
2.66433937276000E-02 2.71008430171000E-02 2.75661117637000E-02 2.80393336303000E-02 
2.85206445642000E-02 2.90101828368000E-02 2.95080890829000E-02 3.00145063415000E-02 
3.05295800963000E-02 3.10534583182000E-02 3.15862915071000E-02 3.21282327357000E-02 
3.26794376933000E-02 3.32400647304000E-02 3.38102749042000E-02 3.43902320252000E-02 
3.49801027038000E-02 3.55800563984000E-02 3.61902654641000E-02 3.68109052021000E-02 
3.74421539103000E-02 3.80841929342000E-02 3.87372067192000E-02 3.94013828635000E-02 
4.00769121720000E-02 4.07639887113000E-02 4.14628098651000E-02 4.21735763912000E-02 
4.28964924792000E-02 4.36317658088000E-02 4.43796076098000E-02 4.51402327227000E-02 
4.59138596603000E-02 4.67007106708000E-02 4.75010118011000E-02 4.83149929624000E-02 
4.91428879956000E-02 4.99849347390000E-02 5.08413750962000E-02 5.17124551062000E-02 
5.25984250132000E-02 5.34995393393000E-02 5.44160569572000E-02 5.53482411647000E-02 
5.62963597602000E-02 5.72606851199000E-02 5.82414942758000E-02 5.92390689954000E-02 
6.02536958626000E-02 6.12856663601000E-02 6.23352769530000E-02 6.34028291741000E-02 
6.44886297106000E-02 6.55929904918000E-02 6.67162287794000E-02 6.78586672579000E-02 
6.90206341278000E-02 7.02024631996000E-02 7.14044939901000E-02 7.26270718193000E-02 
7.38705479103000E-02 7.51352794897000E-02 7.64216298903000E-02 7.77299686558000E-02 
7.90606716466000E-02 8.04141211478000E-02 8.17907059794000E-02 8.31908216074000E-02 
8.46148702581000E-02 8.60632610331000E-02 8.75364100270000E-02 8.90347404470000E-02 
9.05586827344000E-02 9.21086746884000E-02 9.36851615917000E-02 9.52885963384000E-02 
9.69194395643000E-02 9.85781597791000E-02 1.00265233501000E-01 1.01981145394000E-01 
1.03726388406000E-01 1.05501463911000E-01 1.07306881855000E-01 1.09143160899000E-01 
1.11010828570000E-01 1.12910421414000E-01 1.14842485146000E-01 1.16807574812000E-01 
1.18806254943000E-01 1.20839099721000E-01 1.22906693143000E-01 1.25009629190000E-01 
1.27148511994000E-01 1.29323956013000E-01 1.31536586213000E-01 1.33787038237000E-01 
1.36075958599000E-01 1.38404004859000E-01 1.40771845821000E-01 1.43180161720000E-01 
1.45629644418000E-01 1.48120997604000E-01 1.50654936996000E-01 1.53232190546000E-01 
1.55853498648000E-01 1.58519614353000E-01 1.61231303586000E-01 1.63989345362000E-01 
1.66794532013000E-01 1.69647669414000E-01 1.72549577218000E-01 1.75501089086000E-01 
1.78503052929000E-01 1.81556331155000E-01 1.84661800912000E-01 1.87820354339000E-01 
1.91032898830000E-01 1.94300357285000E-01 1.97623668382000E-01 2.01003786844000E-01 
2.04441683714000E-01 2.07938346633000E-01 2.11494780125000E-01 2.15112005884000E-01 
2.18791063069000E-01 2.22533008602000E-01 2.26338917471000E-01 2.30209883041000E-01 
2.34147017365000E-01 2.38151451506000E-01 2.42224335860000E-01 2.46366840487000E-01 
2.50580155450000E-01 2.54865491152000E-01 2.59224078687000E-01 2.63657170193000E-01 
2.68166039212000E-01 2.72751981053000E-01 2.77416313171000E-01 2.82160375536000E-01 
2.86985531026000E-01 2.91893165816000E-01 2.96884689773000E-01 3.01961536866000E-01 
3.07125165575000E-01 3.12377059310000E-01 3.17718726839000E-01 3.23151702719000E-01 
3.28677547740000E-01 3.34297849369000E-01 3.40014222211000E-01 3.45828308469000E-01 
3.51741778417000E-01 3.57756330881000E-01 3.63873693725000E-01 3.70095624350000E-01 
3.76423910195000E-01 3.82860369255000E-01 3.89406850600000E-01 3.96065234907000E-01 
4.02837435002000E-01 4.09725396405000E-01 4.16731097896000E-01 4.23856552077000E-01 
4.31103805952000E-01 4.38474941518000E-01 4.45972076359000E-01 4.53597364257000E-01 
4.61352995810000E-01 4.69241199061000E-01 4.77264240137000E-01 4.85424423903000E-01 
4.93724094623000E-01 5.02165636630000E-01 5.10751475016000E-01 5.19484076328000E-01 
5.28365949271000E-01 5.37399645437000E-01 5.46587760031000E-01 5.55932932621000E-01 
5.65437847894000E-01 5.75105236428000E-01 5.84937875478000E-01 5.94938589770000E-01 
6.05110252315000E-01 6.15455785236000E-01 6.25978160604000E-01 6.36680401293000E-01 
6.47565581851000E-01 6.58636829379000E-01 6.69897324432000E-01 6.81350301933000E-01 
6.92999052101000E-01 7.04846921395000E-01 7.16897313480000E-01 7.29153690200000E-01 
7.41619572575000E-01 7.54298541811000E-01 7.67194240332000E-01 7.80310372821000E-01 
7.93650707290000E-01 8.07219076159000E-01 8.21019377358000E-01 8.35055575445000E-01 
8.49331702750000E-01 8.63851860528000E-01 8.78620220138000E-01 8.93641024244000E-01 
9.08918588034000E-01 9.24457300455000E-01 9.40261625478000E-01 9.56336103381000E-01 
9.72685352051000E-01 9.89314068309000E-01 1.00622702926000E+00 1.02342909368000E+00 
1.04092520339000E+00 1.05872038467000E+00 1.07681974973000E+00 1.09522849819000E+00 
1.11395191851000E+00 1.13299538957000E+00 1.15236438218000E+00 1.17206446070000E+00 
1.19210128456000E+00 1.21248060997000E+00 1.23320829150000E+00 1.25429028382000E+00 
1.27573264337000E+00 1.29754153014000E+00 1.31972320939000E+00 1.34228405349000E+00 
1.36523054373000E+00 1.38856927220000E+00 1.41230694366000E+00 1.43645037748000E+00 
1.46100650961000E+00 1.48598239455000E+00 1.51138520739000E+00 1.53722224585000E+00 
1.56350093244000E+00 1.59022881649000E+00 1.61741357642000E+00 1.64506302188000E+00 
1.67318509603000E+00 1.70178787778000E+00 1.73087958417000E+00 1.76046857268000E+00 
1.79056334366000E+00 1.82117254274000E+00 1.85230496336000E+00 1.88396954927000E+00 
1.91617539707000E+00 1.94893175890000E+00 1.98224804503000E+00 2.01613382656000E+00 
2.05059883824000E+00 2.08565298119000E+00 2.12130632580000E+00 2.15756911457000E+00 
2.19445176511000E+00 2.23196487309000E+00 2.27011921529000E+00 2.30892575272000E+00 
2.34839563375000E+00 2.38854019732000E+00 2.42937097617000E+00 2.47089970020000E+00 
2.51313829981000E+00 2.55609890934000E+00 2.59979387052000E+00 2.64423573609000E+00 
2.68943727332000E+00 2.73541146775000E+00 2.78217152687000E+00 2.82973088395000E+00 
2.87810320186000E+00 2.92730237703000E+00 2.97734254344000E+00 3.02823807666000E+00 
3.08000359799000E+00 3.13265397866000E+00 3.18620434410000E+00 3.24067007831000E+00 
3.29606682824000E+00 3.35241050829000E+00 3.40971730492000E+00 3.46800368125000E+00 
3.52728638185000E+00 3.58758243747000E+00 3.64890917002000E+00 3.71128419747000E+00 
3.77472543897000E+00 3.83925111995000E+00 3.90487977739000E+00 3.97163026514000E+00 
4.03952175932000E+00 4.10857376384000E+00 4.17880611601000E+00 4.25023899222000E+00 
4.32289291376000E+00 4.39678875269000E+00 4.47194773786000E+00 4.54839146098000E+00 
4.62614188287000E+00 4.70522133971000E+00 4.78565254950000E+00 4.86745861857000E+00 
4.95066304822000E+00 5.03528974147000E+00 5.12136300994000E+00 5.20890758081000E+00 
5.29794860394000E+00 5.38851165909000E+00 5.48062276328000E+00 5.57430837825000E+00 
5.66959541805000E+00 5.76651125681000E+00 5.86508373659000E+00 5.96534117533000E+00 
6.06731237507000E+00 6.17102663015000E+00 6.27651373569000E+00 6.38380399607000E+00 
6.49292823371000E+00 6.60391779791000E+00 6.71680457380000E+00 6.83162099159000E+00 
6.94840003579000E+00 7.06717525478000E+00 7.18798077037000E+00 7.31085128766000E+00 
7.43582210495000E+00 7.56292912396000E+00 7.69220886007000E+00 7.82369845284000E+00 
7.95743567669000E+00 8.09345895173000E+00 8.23180735483000E+00 8.37252063079000E+00 
8.51563920383000E+00 8.66120418914000E+00 8.80925740471000E+00 8.95984138339000E+00 
9.11299938502000E+00 9.26877540893000E+00 9.42721420658000E+00 9.58836129435000E+00 
9.75226296669000E+00 9.91896630937000E+00 1.00885192130000E+01 1.02609703870000E+01 
1.04363693730000E+01 1.06147665600000E+01 1.07962131979000E+01 1.09807614128000E+01 
1.11684642219000E+01 1.13593755486000E+01 1.15535502380000E+01 1.17510440726000E+01 
1.19519137888000E+01 1.21562170924000E+01 1.23640126759000E+01 1.25753602349000E+01 
1.27903204854000E+01 1.30089551814000E+01 1.32313271324000E+01 1.34575002216000E+01 
1.36875394241000E+01 1.39215108257000E+01 1.41594816418000E+01 1.44015202370000E+01 
1.46476961441000E+01 1.48980800849000E+01 1.51527439896000E+01 1.54117610184000E+01 
1.56752055818000E+01 1.59431533624000E+01 1.62156813363000E+01 1.64928677955000E+01 
1.67747923705000E+01 1.70615360526000E+01 1.73531812178000E+01 1.76498116500000E+01 
1.79515125655000E+01 1.82583706371000E+01 1.85704740192000E+01 1.88879123730000E+01 
1.92107768924000E+01 1.95391603302000E+01 1.98731570246000E+01 2.02128629264000E+01 
2.05583756264000E+01 2.09097943838000E+01 2.12672201545000E+01 2.16307556199000E+01 
2.20005052167000E+01 2.23765751668000E+01 2.27590735079000E+01 2.31481101243000E+01 
2.35437967787000E+01 2.39462471443000E+01 2.43555768371000E+01 2.47719034498000E+01 
2.51953465850000E+01 2.56260278895000E+01 2.60640710899000E+01 2.65096020275000E+01 
2.69627486947000E+01 2.74236412717000E+01 2.78924121641000E+01 2.83691960406000E+01 
2.88541298722000E+01 2.93473529708000E+01 2.98490070299000E+01 3.03592361651000E+01 
3.08781869552000E+01 3.14060084848000E+01 3.19428523869000E+01 3.24888728862000E+01 
3.30442268440000E+01 3.36090738026000E+01 3.41835760316000E+01 3.47678985744000E+01 
3.53622092957000E+01 3.59666789293000E+01 3.65814811276000E+01 3.72067925116000E+01 
3.78427927209000E+01 3.84896644662000E+01 3.91475935812000E+01 3.98167690762000E+01 
4.04973831924000E+01 4.11896314571000E+01 4.18937127397000E+01 4.26098293092000E+01 
4.33381868920000E+01 4.40789947312000E+01 4.48324656466000E+01 4.55988160957000E+01 
4.63782662362000E+01 4.71710399890000E+01 4.79773651027000E+01 4.87974732189000E+01 
4.96315999389000E+01 5.04799848909000E+01 5.13428717997000E+01 5.22205085560000E+01 
5.31131472878000E+01 5.40210444329000E+01 5.49444608126000E+01 5.58836617067000E+01 
5.68389169292000E+01 5.78105009066000E+01 5.87986927561000E+01 5.98037763662000E+01 
6.08260404779000E+01 6.18657787678000E+01 6.29232899328000E+01 6.39988777753000E+01 
6.50928512908000E+01 6.62055247568000E+01 6.73372178229000E+01 6.84882556025000E+01 
6.96589687665000E+01 7.08496936382000E+01 7.20607722898000E+01 7.32925526408000E+01 
7.45453885578000E+01 7.58196399563000E+01 7.71156729041000E+01 7.84338597263000E+01 
7.97745791127000E+01 8.11382162258000E+01 8.25251628122000E+01 8.39358173149000E+01 
8.53705849876000E+01 8.68298780113000E+01 8.83141156126000E+01 8.98237241842000E+01 
9.13591374076000E+01 9.29207963772000E+01 9.45091497274000E+01 9.61246537614000E+01 
9.77677725823000E+01 9.94389782262000E+01 1.01138750798000E+02 1.02867578610000E+02 
1.04625958321000E+02 1.06414395079000E+02 1.08233402667000E+02 1.10083503651000E+02 
1.11965229529000E+02 1.13879120886000E+02 1.15825727544000E+02 1.17805608726000E+02 
1.19819333213000E+02 1.21867479511000E+02 1.23950636011000E+02 1.26069401164000E+02 
1.28224383650000E+02 1.30416202555000E+02 1.32645487545000E+02 1.34912879050000E+02 
1.37219028449000E+02 1.39564598253000E+02 1.41950262300000E+02 1.44376705943000E+02 
1.46844626255000E+02 1.49354732220000E+02 1.51907744944000E+02 1.54504397857000E+02 
1.57145436927000E+02 1.59831620875000E+02 1.62563721388000E+02 1.65342523347000E+02 
1.68168825047000E+02 1.71043438430000E+02 1.73967189317000E+02 1.76940917645000E+02 
1.79965477709000E+02 1.83041738406000E+02 1.86170583486000E+02 1.89352911806000E+02 
1.92589637587000E+02 1.95881690679000E+02 1.99230016824000E+02 2.02635577931000E+02 
2.06099352352000E+02 
</PP_R>
    <PP_RAB>
2.00060708367000E-06 2.03480466969000E-06 2.06958681572000E-06 2.10496351399000E-06 
2.14094492754000E-06 2.17754139315000E-06 2.21476342426000E-06 2.25262171404000E-06 
2.29112713846000E-06 2.33029075936000E-06 2.37012382770000E-06 2.41063778676000E-06 
2.45184427541000E-06 2.49375513147000E-06 2.53638239512000E-06 2.57973831236000E-06 
2.62383533849000E-06 2.66868614174000E-06 2.71430360688000E-06 2.76070083892000E-06 
2.80789116689000E-06 2.85588814766000E-06 2.90470556983000E-06 2.95435745770000E-06 
3.00485807529000E-06 3.05622193047000E-06 3.10846377907000E-06 3.16159862916000E-06 
3.21564174535000E-06 3.27060865319000E-06 3.32651514361000E-06 3.38337727747000E-06 
3.44121139014000E-06 3.50003409625000E-06 3.55986229443000E-06 3.62071317216000E-06 
3.68260421072000E-06 3.74555319021000E-06 3.80957819465000E-06 3.87469761719000E-06 
3.94093016538000E-06 4.00829486654000E-06 4.07681107325000E-06 4.14649846890000E-06 
4.21737707331000E-06 4.28946724855000E-06 4.36278970473000E-06 4.43736550596000E-06 
4.51321607644000E-06 4.59036320656000E-06 4.66882905920000E-06 4.74863617609000E-06 
4.82980748426000E-06 4.91236630266000E-06 4.99633634884000E-06 5.08174174576000E-06 
5.16860702876000E-06 5.25695715254000E-06 5.34681749838000E-06 5.43821388142000E-06 
5.53117255808000E-06 5.62572023358000E-06 5.72188406965000E-06 5.81969169228000E-06 
5.91917119972000E-06 6.02035117050000E-06 6.12326067168000E-06 6.22792926715000E-06 
6.33438702619000E-06 6.44266453205000E-06 6.55279289075000E-06 6.66480374005000E-06 
6.77872925850000E-06 6.89460217469000E-06 7.01245577666000E-06 7.13232392149000E-06 
7.25424104496000E-06 7.37824217150000E-06 7.50436292425000E-06 7.63263953525000E-06 
7.76310885589000E-06 7.89580836748000E-06 8.03077619203000E-06 8.16805110317000E-06 
8.30767253733000E-06 8.44968060506000E-06 8.59411610251000E-06 8.74102052322000E-06 
8.89043606998000E-06 9.04240566698000E-06 9.19697297215000E-06 9.35418238969000E-06 
9.51407908282000E-06 9.67670898676000E-06 9.84211882195000E-06 1.00103561074000E-05 
1.01814691745000E-05 1.03555071806000E-05 1.05325201236000E-05 1.07125588558000E-05 
1.08956750988000E-05 1.10819214585000E-05 1.12713514397000E-05 1.14640194621000E-05 
1.16599808755000E-05 1.18592919758000E-05 1.20620100211000E-05 1.22681932485000E-05 
1.24779008904000E-05 1.26911931918000E-05 1.29081314274000E-05 1.31287779194000E-05 
1.33531960552000E-05 1.35814503059000E-05 1.38136062444000E-05 1.40497305647000E-05 
1.42898911007000E-05 1.45341568459000E-05 1.47825979732000E-05 1.50352858547000E-05 
1.52922930829000E-05 1.55536934911000E-05 1.58195621744000E-05 1.60899755117000E-05 
1.63650111877000E-05 1.66447482147000E-05 1.69292669558000E-05 1.72186491477000E-05 
1.75129779243000E-05 1.78123378406000E-05 1.81168148968000E-05 1.84264965634000E-05 
1.87414718059000E-05 1.90618311106000E-05 1.93876665105000E-05 1.97190716118000E-05 
2.00561416208000E-05 2.03989733712000E-05 2.07476653518000E-05 2.11023177353000E-05 
2.14630324063000E-05 2.18299129912000E-05 2.22030648877000E-05 2.25825952950000E-05 
2.29686132450000E-05 2.33612296331000E-05 2.37605572505000E-05 2.41667108161000E-05 
2.45798070101000E-05 2.49999645070000E-05 2.54273040100000E-05 2.58619482854000E-05 
2.63040221980000E-05 2.67536527472000E-05 2.72109691032000E-05 2.76761026440000E-05 
2.81491869936000E-05 2.86303580598000E-05 2.91197540739000E-05 2.96175156299000E-05 
3.01237857250000E-05 3.06387098008000E-05 3.11624357851000E-05 3.16951141341000E-05 
3.22368978761000E-05 3.27879426550000E-05 3.33484067754000E-05 3.39184512477000E-05 
3.44982398348000E-05 3.50879390985000E-05 3.56877184482000E-05 3.62977501888000E-05 
3.69182095707000E-05 3.75492748397000E-05 3.81911272888000E-05 3.88439513098000E-05 
3.95079344463000E-05 4.01832674478000E-05 4.08701443245000E-05 4.15687624028000E-05 
4.22793223822000E-05 4.30020283927000E-05 4.37370880539000E-05 4.44847125341000E-05 
4.52451166114000E-05 4.60185187352000E-05 4.68051410889000E-05 4.76052096539000E-05 
4.84189542744000E-05 4.92466087236000E-05 5.00884107705000E-05 5.09446022486000E-05 
5.18154291250000E-05 5.27011415716000E-05 5.36019940363000E-05 5.45182453167000E-05 
5.54501586340000E-05 5.63980017089000E-05 5.73620468383000E-05 5.83425709737000E-05 
5.93398558008000E-05 6.03541878202000E-05 6.13858584299000E-05 6.24351640088000E-05 
6.35024060022000E-05 6.45878910080000E-05 6.56919308650000E-05 6.68148427426000E-05 
6.79569492316000E-05 6.91185784371000E-05 7.03000640726000E-05 7.15017455562000E-05 
7.27239681077000E-05 7.39670828480000E-05 7.52314468998000E-05 7.65174234905000E-05 
7.78253820563000E-05 7.91556983484000E-05 8.05087545409000E-05 8.18849393407000E-05 
8.32846480990000E-05 8.47082829250000E-05 8.61562528016000E-05 8.76289737024000E-05 
8.91268687117000E-05 9.06503681456000E-05 9.21999096762000E-05 9.37759384567000E-05 
9.53789072496000E-05 9.70092765570000E-05 9.86675147522000E-05 1.00354098215000E-04 
1.02069511469000E-04 1.03814247318000E-04 1.05588806991000E-04 1.07393700285000E-04 
1.09229445712000E-04 1.11096570644000E-04 1.12995611471000E-04 1.14927113751000E-04 
1.16891632367000E-04 1.18889731687000E-04 1.20921985726000E-04 1.22988978311000E-04 
1.25091303250000E-04 1.27229564500000E-04 1.29404376342000E-04 1.31616363557000E-04 
1.33866161607000E-04 1.36154416814000E-04 1.38481786550000E-04 1.40848939424000E-04 
1.43256555473000E-04 1.45705326358000E-04 1.48195955564000E-04 1.50729158600000E-04 
1.53305663207000E-04 1.55926209564000E-04 1.58591550503000E-04 1.61302451727000E-04 
1.64059692023000E-04 1.66864063494000E-04 1.69716371782000E-04 1.72617436299000E-04 
1.75568090465000E-04 1.78569181947000E-04 1.81621572899000E-04 1.84726140214000E-04 
1.87883775774000E-04 1.91095386708000E-04 1.94361895649000E-04 1.97684241001000E-04 
2.01063377210000E-04 2.04500275036000E-04 2.07995921835000E-04 2.11551321837000E-04 
2.15167496439000E-04 2.18845484500000E-04 2.22586342634000E-04 2.26391145517000E-04 
2.30260986195000E-04 2.34196976399000E-04 2.38200246862000E-04 2.42271947646000E-04 
2.46413248473000E-04 2.50625339058000E-04 2.54909429453000E-04 2.59266750395000E-04 
2.63698553657000E-04 2.68206112410000E-04 2.72790721590000E-04 2.77453698265000E-04 
2.82196382019000E-04 2.87020135332000E-04 2.91926343976000E-04 2.96916417410000E-04 
3.01991789185000E-04 3.07153917358000E-04 3.12404284907000E-04 3.17744400162000E-04 
3.23175797234000E-04 3.28700036459000E-04 3.34318704844000E-04 3.40033416524000E-04 
3.45845813224000E-04 3.51757564734000E-04 3.57770369385000E-04 3.63885954541000E-04 
3.70106077090000E-04 3.76432523952000E-04 3.82867112595000E-04 3.89411691550000E-04 
3.96068140949000E-04 4.02838373061000E-04 4.09724332841000E-04 4.16727998494000E-04 
4.23851382037000E-04 4.31096529881000E-04 4.38465523415000E-04 4.45960479609000E-04 
4.53583551620000E-04 4.61336929407000E-04 4.69222840367000E-04 4.77243549970000E-04 
4.85401362409000E-04 4.93698621266000E-04 5.02137710184000E-04 5.10721053550000E-04 
5.19451117191000E-04 5.28330409086000E-04 5.37361480085000E-04 5.46546924638000E-04 
5.55889381546000E-04 5.65391534717000E-04 5.75056113935000E-04 5.84885895646000E-04 
5.94883703758000E-04 6.05052410446000E-04 6.15394936983000E-04 6.25914254577000E-04 
6.36613385225000E-04 6.47495402579000E-04 6.58563432833000E-04 6.69820655617000E-04 
6.81270304914000E-04 6.92915669986000E-04 7.04760096322000E-04 7.16806986596000E-04 
7.29059801646000E-04 7.41522061470000E-04 7.54197346232000E-04 7.67089297298000E-04 
7.80201618275000E-04 7.93538076080000E-04 8.07102502018000E-04 8.20898792887000E-04 
8.34930912093000E-04 8.49202890795000E-04 8.63718829054000E-04 8.78482897019000E-04 
8.93499336121000E-04 9.08772460292000E-04 9.24306657205000E-04 9.40106389535000E-04 
9.56176196239000E-04 9.72520693862000E-04 9.89144577860000E-04 1.00605262395000E-03 
1.02324968950000E-03 1.04074071488000E-03 1.05853072493000E-03 1.07662483037000E-03 
1.09502822930000E-03 1.11374620864000E-03 1.13278414572000E-03 1.15214750976000E-03 
1.17184186349000E-03 1.19187286470000E-03 1.21224626793000E-03 1.23296792606000E-03 
1.25404379200000E-03 1.27547992047000E-03 1.29728246963000E-03 1.31945770295000E-03 
1.34201199092000E-03 1.36495181298000E-03 1.38828375928000E-03 1.41201453263000E-03 
1.43615095044000E-03 1.46069994663000E-03 1.48566857364000E-03 1.51106400449000E-03 
1.53689353479000E-03 1.56316458485000E-03 1.58988470186000E-03 1.61706156197000E-03 
1.64470297258000E-03 1.67281687453000E-03 1.70141134439000E-03 1.73049459681000E-03 
1.76007498684000E-03 1.79016101236000E-03 1.82076131649000E-03 1.85188469012000E-03 
1.88354007438000E-03 1.91573656326000E-03 1.94848340618000E-03 1.98179001068000E-03 
2.01566594509000E-03 2.05012094134000E-03 2.08516489765000E-03 2.12080788149000E-03 
2.15706013240000E-03 2.19393206494000E-03 2.23143427171000E-03 2.26957752636000E-03 
2.30837278672000E-03 2.34783119792000E-03 2.38796409558000E-03 2.42878300912000E-03 
2.47029966502000E-03 2.51252599021000E-03 2.55547411549000E-03 2.59915637904000E-03 
2.64358532992000E-03 2.68877373172000E-03 2.73473456617000E-03 2.78148103695000E-03 
2.82902657340000E-03 2.87738483444000E-03 2.92656971247000E-03 2.97659533735000E-03 
3.02747608046000E-03 3.07922655887000E-03 3.13186163948000E-03 3.18539644334000E-03 
3.23984634996000E-03 3.29522700174000E-03 3.35155430847000E-03 3.40884445190000E-03 
3.46711389037000E-03 3.52637936358000E-03 3.58665789734000E-03 3.64796680850000E-03 
3.71032370994000E-03 3.77374651559000E-03 3.83825344558000E-03 3.90386303151000E-03 
3.97059412175000E-03 4.03846588685000E-03 4.10749782504000E-03 4.17770976788000E-03 
4.24912188590000E-03 4.32175469440000E-03 4.39562905941000E-03 4.47076620358000E-03 
4.54718771237000E-03 4.62491554019000E-03 4.70397201676000E-03 4.78437985346000E-03 
4.86616214990000E-03 4.94934240058000E-03 5.03394450154000E-03 5.11999275736000E-03 
5.20751188801000E-03 5.29652703606000E-03 5.38706377384000E-03 5.47914811079000E-03 
5.57280650098000E-03 5.66806585063000E-03 5.76495352591000E-03 5.86349736079000E-03 
5.96372566500000E-03 6.06566723218000E-03 6.16935134819000E-03 6.27480779946000E-03 
6.38206688158000E-03 6.49115940802000E-03 6.60211671895000E-03 6.71497069026000E-03 
6.82975374271000E-03 6.94649885124000E-03 7.06523955447000E-03 7.18600996431000E-03 
7.30884477576000E-03 7.43377927688000E-03 7.56084935893000E-03 7.69009152670000E-03 
7.82154290895000E-03 7.95524126913000E-03 8.09122501619000E-03 8.22953321561000E-03 
8.37020560069000E-03 8.51328258386000E-03 8.65880526838000E-03 8.80681546009000E-03 
8.95735567947000E-03 9.11046917381000E-03 9.26619992964000E-03 9.42459268540000E-03 
9.58569294427000E-03 9.74954698723000E-03 9.91620188637000E-03 1.00857055184000E-02 
1.02581065785000E-02 1.04334545941000E-02 1.06117999393000E-02 1.07931938493000E-02 