<UPF version="2.0.1">
  <PP_INFO>
Generated using Vanderbilt code, version   7  3  6
Author: kfg    Generation date:   23    7 2013
Automatically converted from original format
1        The Pseudo was generated with a Scalar-Relativistic Calculation
1.60000000000E+00    Local Potential cutoff radius
nl pn  l   occ               Rcut            Rcut US             E pseu
4S  4  0  2.00      0.00000000000      1.50000000000     -1.27090753500
4P  4  1  4.00      0.00000000000      1.50000000000     -0.47850673200
</PP_INFO>
  <PP_HEADER element="Se" pseudo_type="US" relativistic="scalar" is_ultrasoft="T" is_paw="F" is_coulomb="F" has_so="F" has_wfc="F" has_gipaw="F" core_correction="T" functional="PBESOL" z_valence="6.0" total_psenergy="-43.0215150115" wfc_cutoff="0.0" rho_cutoff="0.0" l_max="2" mesh_size="877" number_of_wfc="2" number_of_proj="6"/>
  <PP_MESH>
    <PP_R>
0.00000000000000E+00 1.24620026706000E-06 2.51370258847000E-06 3.80287109312000E-06 
5.11407613417000E-06 6.44769439547000E-06 7.80410899973000E-06 9.18370961861000E-06 
1.05868925847000E-05 1.20140610053000E-05 1.34656248782000E-05 1.49420012098000E-05 
1.64436141343000E-05 1.79708950360000E-05 1.95242826733000E-05 2.11042233043000E-05 
2.27111708154000E-05 2.43455868515000E-05 2.60079409488000E-05 2.76987106693000E-05 
2.94183817386000E-05 3.11674481847000E-05 3.29464124808000E-05 3.47557856888000E-05 
3.65960876065000E-05 3.84678469172000E-05 4.03716013411000E-05 4.23078977899000E-05 
4.42772925242000E-05 4.62803513130000E-05 4.83176495962000E-05 5.03897726504000E-05 
5.24973157562000E-05 5.46408843702000E-05 5.68210942980000E-05 5.90385718718000E-05 
6.12939541300000E-05 6.35878890002000E-05 6.59210354856000E-05 6.82940638540000E-05 
7.07076558305000E-05 7.31625047934000E-05 7.56593159733000E-05 7.81988066558000E-05 
8.07817063873000E-05 8.34087571850000E-05 8.60807137498000E-05 8.87983436830000E-05 
9.15624277071000E-05 9.43737598901000E-05 9.72331478731000E-05 1.00141413103000E-04 
1.03099391069000E-04 1.06107931539000E-04 1.09167898810000E-04 1.12280171951000E-04 
1.15445645058000E-04 1.18665227510000E-04 1.21939844230000E-04 1.25270435954000E-04 
1.28657959494000E-04 1.32103388022000E-04 1.35607711342000E-04 1.39171936178000E-04 
1.42797086464000E-04 1.46484203635000E-04 1.50234346928000E-04 1.54048593686000E-04 
1.57928039670000E-04 1.61873799369000E-04 1.65887006323000E-04 1.69968813449000E-04 
1.74120393371000E-04 1.78342938758000E-04 1.82637662665000E-04 1.87005798884000E-04 
1.91448602295000E-04 1.95967349230000E-04 2.00563337838000E-04 2.05237888456000E-04 
2.09992343994000E-04 2.14828070313000E-04 2.19746456625000E-04 2.24748915887000E-04 
2.29836885209000E-04 2.35011826265000E-04 2.40275225716000E-04 2.45628595635000E-04 
2.51073473942000E-04 2.56611424845000E-04 2.62244039289000E-04 2.67972935417000E-04 
2.73799759028000E-04 2.79726184057000E-04 2.85753913051000E-04 2.91884677659000E-04 
2.98120239133000E-04 3.04462388827000E-04 3.10912948719000E-04 3.17473771931000E-04 
3.24146743258000E-04 3.30933779717000E-04 3.37836831093000E-04 3.44857880498000E-04 
3.51998944944000E-04 3.59262075920000E-04 3.66649359984000E-04 3.74162919359000E-04 
3.81804912546000E-04 3.89577534941000E-04 3.97483019468000E-04 4.05523637220000E-04 
4.13701698111000E-04 4.22019551540000E-04 4.30479587064000E-04 4.39084235089000E-04 
4.47835967563000E-04 4.56737298690000E-04 4.65790785649000E-04 4.74999029333000E-04 
4.84364675091000E-04 4.93890413493000E-04 5.03578981099000E-04 5.13433161246000E-04 
5.23455784850000E-04 5.33649731217000E-04 5.44017928871000E-04 5.54563356393000E-04 
5.65289043281000E-04 5.76198070818000E-04 5.87293572956000E-04 5.98578737218000E-04 
6.10056805613000E-04 6.21731075569000E-04 6.33604900876000E-04 6.45681692656000E-04 
6.57964920337000E-04 6.70458112653000E-04 6.83164858655000E-04 6.96088808747000E-04 
7.09233675728000E-04 7.22603235866000E-04 7.36201329975000E-04 7.50031864525000E-04 
7.64098812762000E-04 7.78406215847000E-04 7.92958184019000E-04 8.07758897779000E-04 
8.22812609084000E-04 8.38123642575000E-04 8.53696396815000E-04 8.69535345556000E-04 
8.85645039020000E-04 9.02030105210000E-04 9.18695251241000E-04 9.35645264684000E-04 
9.52885014952000E-04 9.70419454690000E-04 9.88253621205000E-04 1.00639263791000E-03 
1.02484171578000E-03 1.04360615490000E-03 1.06269134591000E-03 1.08210277163000E-03 
1.10184600858000E-03 1.12192672861000E-03 1.14235070053000E-03 1.16312379174000E-03 
1.18425196996000E-03 1.20574130489000E-03 1.22759797002000E-03 1.24982824433000E-03 
1.27243851416000E-03 1.29543527499000E-03 1.31882513336000E-03 1.34261480871000E-03 
1.36681113536000E-03 1.39142106445000E-03 1.41645166592000E-03 1.44191013060000E-03 
1.46780377220000E-03 1.49414002947000E-03 1.52092646830000E-03 1.54817078391000E-03 
1.57588080308000E-03 1.60406448636000E-03 1.63272993037000E-03 1.66188537013000E-03 
1.69153918145000E-03 1.72169988329000E-03 1.75237614024000E-03 1.78357676498000E-03 
1.81531072086000E-03 1.84758712443000E-03 1.88041524807000E-03 1.91380452267000E-03 
1.94776454032000E-03 1.98230505708000E-03 2.01743599576000E-03 2.05316744882000E-03 
2.08950968119000E-03 2.12647313331000E-03 2.16406842406000E-03 2.20230635383000E-03 
2.24119790765000E-03 2.28075425830000E-03 2.32098676956000E-03 2.36190699945000E-03 
2.40352670357000E-03 2.44585783844000E-03 2.48891256498000E-03 2.53270325199000E-03 
2.57724247967000E-03 2.62254304329000E-03 2.66861795683000E-03 2.71548045671000E-03 
2.76314400562000E-03 2.81162229638000E-03 2.86092925587000E-03 2.91107904901000E-03 
2.96208608288000E-03 3.01396501081000E-03 3.06673073660000E-03 3.12039841884000E-03 
3.17498347521000E-03 3.23050158693000E-03 3.28696870330000E-03 3.34440104621000E-03 
3.40281511487000E-03 3.46222769051000E-03 3.52265584122000E-03 3.58411692682000E-03 
3.64662860391000E-03 3.71020883088000E-03 3.77487587309000E-03 3.84064830814000E-03 
3.90754503117000E-03 3.97558526033000E-03 4.04478854224000E-03 4.11517475767000E-03 
4.18676412723000E-03 4.25957721715000E-03 4.33363494522000E-03 4.40895858679000E-03 
4.48556978090000E-03 4.56349053645000E-03 4.64274323857000E-03 4.72335065502000E-03 
4.80533594276000E-03 4.88872265458000E-03 4.97353474586000E-03 5.05979658147000E-03 
5.14753294278000E-03 5.23676903474000E-03 5.32753049315000E-03 5.41984339202000E-03 
5.51373425107000E-03 5.60923004332000E-03 5.70635820286000E-03 5.80514663273000E-03 
5.90562371294000E-03 6.00781830861000E-03 6.11175977827000E-03 6.21747798230000E-03 
6.32500329147000E-03 6.43436659575000E-03 6.54559931308000E-03 6.65873339848000E-03 
6.77380135317000E-03 6.89083623396000E-03 7.00987166270000E-03 7.13094183597000E-03 
7.25408153489000E-03 7.37932613510000E-03 7.50671161696000E-03 7.63627457585000E-03 
7.76805223270000E-03 7.90208244469000E-03 8.03840371609000E-03 8.17705520938000E-03 
8.31807675644000E-03 8.46150887004000E-03 8.60739275544000E-03 8.75577032227000E-03 
8.90668419653000E-03 9.06017773284000E-03 9.21629502695000E-03 9.37508092831000E-03 
9.53658105306000E-03 9.70084179705000E-03 9.86791034921000E-03 1.00378347051000E-02 
1.02106636807000E-02 1.03864469265000E-02 1.05652349415000E-02 1.07470790881000E-02 
1.09320316066000E-02 1.11201456303000E-02 1.13114752007000E-02 1.15060752830000E-02 
1.17040017822000E-02 1.19053115587000E-02 1.21100624449000E-02 1.23183132617000E-02 
1.25301238355000E-02 1.27455550156000E-02 1.29646686909000E-02 1.31875278088000E-02 
1.34141963923000E-02 1.36447395588000E-02 1.38792235391000E-02 1.41177156957000E-02 
1.43602845429000E-02 1.46069997660000E-02 1.48579322416000E-02 1.51131540576000E-02 
1.53727385343000E-02 1.56367602455000E-02 1.59052950392000E-02 1.61784200606000E-02 
1.64562137729000E-02 1.67387559811000E-02 1.70261278541000E-02 1.73184119481000E-02 
1.76156922308000E-02 1.79180541051000E-02 1.82255844336000E-02 1.85383715639000E-02 
1.88565053536000E-02 1.91800771965000E-02 1.95091800485000E-02 1.98439084544000E-02 
2.01843585753000E-02 2.05306282158000E-02 2.08828168526000E-02 2.12410256626000E-02 
2.16053575523000E-02 2.19759171872000E-02 2.23528110219000E-02 2.27361473307000E-02 
2.31260362387000E-02 2.35225897535000E-02 2.39259217971000E-02 2.43361482392000E-02 
2.47533869298000E-02 2.51777577334000E-02 2.56093825637000E-02 2.60483854181000E-02 
2.64948924136000E-02 2.69490318231000E-02 2.74109341119000E-02 2.78807319758000E-02 
2.83585603784000E-02 2.88445565908000E-02 2.93388602301000E-02 2.98416133003000E-02 
3.03529602326000E-02 3.08730479270000E-02 3.14020257947000E-02 3.19400458009000E-02 
3.24872625081000E-02 3.30438331213000E-02 3.36099175324000E-02 3.41856783664000E-02 
3.47712810283000E-02 3.53668937505000E-02 3.59726876409000E-02 3.65888367325000E-02 
3.72155180328000E-02 3.78529115753000E-02 3.85012004710000E-02 3.91605709605000E-02 
3.98312124683000E-02 4.05133176567000E-02 4.12070824814000E-02 4.19127062475000E-02 
4.26303916671000E-02 4.33603449174000E-02 4.41027756998000E-02 4.48578973002000E-02 
4.56259266505000E-02 4.64070843907000E-02 4.72015949323000E-02 4.80096865227000E-02 
4.88315913111000E-02 4.96675454148000E-02 5.05177889872000E-02 5.13825662869000E-02 
5.22621257477000E-02 5.31567200499000E-02 5.40666061931000E-02 5.49920455702000E-02 
5.59333040418000E-02 5.68906520134000E-02 5.78643645125000E-02 5.88547212678000E-02 
5.98620067897000E-02 6.08865104518000E-02 6.19285265742000E-02 6.29883545080000E-02 
6.40662987212000E-02 6.51626688863000E-02 6.62777799692000E-02 6.74119523199000E-02 
6.85655117641000E-02 6.97387896970000E-02 7.09321231787000E-02 7.21458550309000E-02 
7.33803339352000E-02 7.46359145335000E-02 7.59129575298000E-02 7.72118297939000E-02 
7.85329044666000E-02 7.98765610671000E-02 8.12431856020000E-02 8.26331706761000E-02 
8.40469156051000E-02 8.54848265306000E-02 8.69473165366000E-02 8.84348057682000E-02 
8.99477215523000E-02 9.14864985202000E-02 9.30515787329000E-02 9.46434118076000E-02 
9.62624550470000E-02 9.79091735712000E-02 9.95840404502000E-02 1.01287536841000E-01 
1.03020152125000E-01 1.04782384050000E-01 1.06574738870000E-01 1.08397731494000E-01 
1.10251885633000E-01 1.12137733949000E-01 1.14055818210000E-01 1.16006689445000E-01 
1.17990908101000E-01 1.20009044205000E-01 1.22061677530000E-01 1.24149397757000E-01 
1.26272804647000E-01 1.28432508215000E-01 1.30629128901000E-01 1.32863297752000E-01 
1.35135656601000E-01 1.37446858254000E-01 1.39797566673000E-01 1.42188457173000E-01 
1.44620216608000E-01 1.47093543577000E-01 1.49609148619000E-01 1.52167754419000E-01 
1.54770096013000E-01 1.57416921006000E-01 1.60108989777000E-01 1.62847075708000E-01 
1.65631965395000E-01 1.68464458886000E-01 1.71345369900000E-01 1.74275526066000E-01 
1.77255769163000E-01 1.80286955357000E-01 1.83369955448000E-01 1.86505655123000E-01 
1.89694955208000E-01 1.92938771927000E-01 1.96238037165000E-01 1.99593698738000E-01 
2.03006720663000E-01 2.06478083434000E-01 2.10008784307000E-01 2.13599837584000E-01 
2.17252274905000E-01 2.20967145544000E-01 2.24745516713000E-01 2.28588473863000E-01 
2.32497121003000E-01 2.36472581011000E-01 2.40515995959000E-01 2.44628527443000E-01 
2.48811356913000E-01 2.53065686015000E-01 2.57392736936000E-01 2.61793752753000E-01 
2.66269997794000E-01 2.70822757996000E-01 2.75453341281000E-01 2.80163077924000E-01 
2.84953320942000E-01 2.89825446479000E-01 2.94780854202000E-01 2.99820967705000E-01 
3.04947234914000E-01 3.10161128507000E-01 3.15464146334000E-01 3.20857811849000E-01 
3.26343674550000E-01 3.31923310417000E-01 3.37598322372000E-01 3.43370340736000E-01 
3.49241023699000E-01 3.55212057794000E-01 3.61285158384000E-01 3.67462070152000E-01 
3.73744567606000E-01 3.80134455587000E-01 3.86633569785000E-01 3.93243777269000E-01 
3.99966977026000E-01 4.06805100499000E-01 4.13760112149000E-01 4.20834010018000E-01 
4.28028826297000E-01 4.35346627920000E-01 4.42789517149000E-01 4.50359632182000E-01 
4.58059147767000E-01 4.65890275824000E-01 4.73855266087000E-01 4.81956406742000E-01 
4.90196025091000E-01 4.98576488216000E-01 5.07100203662000E-01 5.15769620128000E-01 
5.24587228169000E-01 5.33555560914000E-01 5.42677194791000E-01 5.51954750268000E-01 
5.61390892609000E-01 5.70988332634000E-01 5.80749827501000E-01 5.90678181500000E-01 
6.00776246855000E-01 6.11046924544000E-01 6.21493165134000E-01 6.32117969628000E-01 
6.42924390326000E-01 6.53915531705000E-01 6.65094551306000E-01 6.76464660646000E-01 
6.88029126137000E-01 6.99791270026000E-01 7.11754471349000E-01 7.23922166903000E-01 
7.36297852231000E-01 7.48885082628000E-01 7.61687474161000E-01 7.74708704711000E-01 
7.87952515024000E-01 8.01422709792000E-01 8.15123158739000E-01 8.29057797741000E-01 
8.43230629950000E-01 8.57645726945000E-01 8.72307229905000E-01 8.87219350797000E-01 
9.02386373584000E-01 9.17812655458000E-01 9.33502628091000E-01 9.49460798910000E-01 
9.65691752387000E-01 9.82200151362000E-01 9.98990738378000E-01 1.01606833705000E+00 
1.03343785343000E+00 1.05110427745000E+00 1.06907268434000E+00 1.08734823607000E+00 
1.10593618285000E+00 1.12484186463000E+00 1.14407071266000E+00 1.16362825102000E+00 
1.18352009819000E+00 1.20375196874000E+00 1.22432967487000E+00 1.24525912817000E+00 
1.26654634127000E+00 1.28819742956000E+00 1.31021861299000E+00 1.33261621782000E+00 
1.35539667845000E+00 1.37856653926000E+00 1.40213245650000E+00 1.42610120021000E+00 
1.45047965614000E+00 1.47527482776000E+00 1.50049383822000E+00 1.52614393248000E+00 
1.55223247930000E+00 1.57876697341000E+00 1.60575503768000E+00 1.63320442523000E+00 
1.66112302176000E+00 1.68951884773000E+00 1.71840006072000E+00 1.74777495773000E+00 
1.77765197762000E+00 1.80803970346000E+00 1.83894686507000E+00 1.87038234146000E+00 
1.90235516346000E+00 1.93487451623000E+00 1.96794974195000E+00 2.00159034249000E+00 
2.03580598215000E+00 2.07060649041000E+00 2.10600186480000E+00 2.14200227371000E+00 
2.17861805938000E+00 2.21585974079000E+00 2.25373801678000E+00 2.29226376903000E+00 
2.33144806525000E+00 2.37130216232000E+00 2.41183750956000E+00 2.45306575200000E+00 
2.49499873370000E+00 2.53764850120000E+00 2.58102730695000E+00 2.62514761284000E+00 
2.67002209379000E+00 2.71566364137000E+00 2.76208536750000E+00 2.80930060825000E+00 
2.85732292765000E+00 2.90616612158000E+00 2.95584422175000E+00 3.00637149970000E+00 
3.05776247096000E+00 3.11003189914000E+00 3.16319480026000E+00 3.21726644697000E+00 
3.27226237302000E+00 3.32819837767000E+00 3.38509053026000E+00 3.44295517480000E+00 
3.50180893468000E+00 3.56166871744000E+00 3.62255171966000E+00 3.68447543182000E+00 
3.74745764342000E+00 3.81151644804000E+00 3.87667024851000E+00 3.94293776228000E+00 
4.01033802671000E+00 4.07889040459000E+00 4.14861458970000E+00 4.21953061245000E+00 
4.29165884564000E+00 4.36502001031000E+00 4.43963518170000E+00 4.51552579532000E+00 
4.59271365306000E+00 4.67122092951000E+00 4.75107017828000E+00 4.83228433852000E+00 
4.91488674148000E+00 4.99890111725000E+00 5.08435160151000E+00 5.17126274255000E+00 
5.25965950825000E+00 5.34956729329000E+00 5.44101192644000E+00 5.53401967797000E+00 
5.62861726722000E+00 5.72483187022000E+00 5.82269112759000E+00 5.92222315239000E+00 
6.02345653825000E+00 6.12642036755000E+00 6.23114421982000E+00 6.33765818019000E+00 
6.44599284806000E+00 6.55617934588000E+00 6.66824932811000E+00 6.78223499027000E+00 
6.89816907825000E+00 7.01608489767000E+00 7.13601632345000E+00 7.25799780958000E+00 
7.38206439897000E+00 7.50825173356000E+00 7.63659606453000E+00 7.76713426272000E+00 
7.89990382922000E+00 8.03494290617000E+00 8.17229028767000E+00 8.31198543098000E+00 
8.45406846781000E+00 8.59858021585000E+00 8.74556219055000E+00 8.89505661697000E+00 
9.04710644197000E+00 9.20175534654000E+00 9.35904775829000E+00 9.51902886430000E+00 
9.68174462405000E+00 9.84724178263000E+00 1.00155678842000E+01 1.01867712855000E+01 
1.03609011700000E+01 1.05380075619000E+01 1.07181413404000E+01 1.09013542544000E+01 
1.10876989375000E+01 1.12772289229000E+01 1.14699986589000E+01 1.16660635245000E+01 
1.18654798453000E+01 1.20683049098000E+01 1.22745969858000E+01 1.24844153369000E+01 
1.26978202398000E+01 1.29148730018000E+01 1.31356359778000E+01 1.33601725887000E+01 
1.35885473397000E+01 1.38208258383000E+01 1.40570748137000E+01 1.42973621356000E+01 
1.45417568339000E+01 1.47903291185000E+01 1.50431503994000E+01 1.53002933073000E+01 
1.55618317142000E+01 1.58278407553000E+01 1.60983968497000E+01 1.63735777229000E+01 
1.66534624291000E+01 1.69381313737000E+01 1.72276663366000E+01 1.75221504957000E+01 
1.78216684505000E+01 1.81263062467000E+01 1.84361514008000E+01 1.87512929255000E+01 
1.90718213547000E+01 1.93978287701000E+01 1.97294088272000E+01 2.00666567827000E+01 
2.04096695213000E+01 2.07585455839000E+01 2.11133851960000E+01 2.14742902960000E+01 
2.18413645650000E+01 2.22147134563000E+01 2.25944442259000E+01 2.29806659630000E+01 
2.33734896217000E+01 2.37730280527000E+01 2.41793960355000E+01 2.45927103118000E+01 
2.50130896188000E+01 2.54406547235000E+01 2.58755284569000E+01 2.63178357498000E+01 
2.67677036686000E+01 2.72252614516000E+01 2.76906405464000E+01 2.81639746473000E+01 
2.86453997341000E+01 2.91350541108000E+01 2.96330784458000E+01 3.01396158117000E+01 
3.06548117269000E+01 3.11788141973000E+01 3.17117737587000E+01 3.22538435199000E+01 
3.28051792072000E+01 3.33659392086000E+01 3.39362846196000E+01 3.45163792894000E+01 
3.51063898680000E+01 3.57064858541000E+01 3.63168396435000E+01 3.69376265791000E+01 
3.75690250010000E+01 3.82112162978000E+01 3.88643849585000E+01 3.95287186259000E+01 
4.02044081502000E+01 4.08916476439000E+01 4.15906345377000E+01 4.23015696368000E+01 
4.30246571793000E+01 4.37601048942000E+01 4.45081240614000E+01 4.52689295723000E+01 
4.60427399916000E+01 4.68297776201000E+01 4.76302685584000E+01 4.84444427721000E+01 
4.92725341578000E+01 5.01147806100000E+01 5.09714240899000E+01 5.18427106945000E+01 
5.27288907276000E+01 5.36302187717000E+01 5.45469537607000E+01 5.54793590550000E+01 
5.64277025165000E+01 5.73922565859000E+01 5.83732983611000E+01 5.93711096762000E+01 
6.03859771832000E+01 6.14181924338000E+01 6.24680519636000E+01 6.35358573769000E+01 
6.46219154334000E+01 6.57265381367000E+01 6.68500428235000E+01 6.79927522550000E+01 
6.91549947094000E+01 7.03371040765000E+01 7.15394199534000E+01 7.27622877424000E+01 
7.40060587495000E+01 7.52710902861000E+01 7.65577457714000E+01 7.78663948366000E+01 
7.91974134311000E+01 8.05511839309000E+01 8.19280952481000E+01 8.33285429426000E+01 
8.47529293360000E+01 8.62016636268000E+01 8.76751620085000E+01 8.91738477886000E+01 
9.06981515105000E+01 9.22485110772000E+01 9.38253718770000E+01 9.54291869115000E+01 
9.70604169257000E+01 9.87195305404000E+01 1.00407004387000E+02 1.02123323244000E+02 
1.03868980176000E+02 1.05644476677000E+02 1.07450322814000E+02 1.09287037369000E+02 
1.11155147997000E+02 1.13055191368000E+02 1.14987713329000E+02 1.16953269057000E+02 
1.18952423216000E+02 1.20985750125000E+02 1.23053833921000E+02 1.25157268722000E+02 
1.27296658806000E+02 1.29472618777000E+02 1.31685773748000E+02 1.33936759514000E+02 
1.36226222740000E+02 1.38554821145000E+02 1.40923223689000E+02 1.43332110770000E+02 
1.45782174414000E+02 1.48274118476000E+02 1.50808658844000E+02 1.53386523643000E+02 
1.56008453442000E+02 1.58675201473000E+02 1.61387533839000E+02 1.64146229741000E+02 
1.66952081700000E+02 1.69805895782000E+02 1.72708491834000E+02 1.75660703713000E+02 
1.78663379535000E+02 1.81717381909000E+02 1.84823588192000E+02 1.87982890736000E+02 
1.91196197148000E+02 1.94464430548000E+02 1.97788529838000E+02 2.01169449965000E+02 
2.04608162204000E+02 
</PP_R>
    <PP_RAB>
1.23566908109000E-06 1.25679111951000E-06 1.27827420971000E-06 1.30012452335000E-06 
1.32234833760000E-06 1.34495203695000E-06 1.36794211498000E-06 1.39132517632000E-06 
1.41510793846000E-06 1.43929723372000E-06 1.46390001123000E-06 1.48892333888000E-06 
1.51437440540000E-06 1.54026052238000E-06 1.56658912640000E-06 1.59336778116000E-06 
1.62060417966000E-06 1.64830614637000E-06 1.67648163954000E-06 1.70513875345000E-06 
1.73428572073000E-06 1.76393091473000E-06 1.79408285195000E-06 1.82475019446000E-06 
1.85594175239000E-06 1.88766648647000E-06 1.91993351060000E-06 1.95275209448000E-06 
1.98613166625000E-06 2.02008181521000E-06 2.05461229459000E-06 2.08973302432000E-06 
2.12545409391000E-06 2.16178576533000E-06 2.19873847597000E-06 2.23632284163000E-06 
2.27454965956000E-06 2.31342991160000E-06 2.35297476729000E-06 2.39319558709000E-06 
2.43410392567000E-06 2.47571153522000E-06 2.51803036877000E-06 2.56107258373000E-06 
2.60485054528000E-06 2.64937682999000E-06 2.69466422939000E-06 2.74072575368000E-06 
2.78757463545000E-06 2.83522433346000E-06 2.88368853657000E-06 2.93298116758000E-06 
2.98311638734000E-06 3.03410859870000E-06 3.08597245075000E-06 3.13872284297000E-06 
3.19237492953000E-06 3.24694412363000E-06 3.30244610194000E-06 3.35889680912000E-06 
3.41631246235000E-06 3.47470955604000E-06 3.53410486655000E-06 3.59451545699000E-06 
3.65595868218000E-06 3.71845219354000E-06 3.78201394427000E-06 3.84666219442000E-06 
3.91241551618000E-06 3.97929279921000E-06 4.04731325605000E-06 4.11649642768000E-06 
4.18686218907000E-06 4.25843075495000E-06 4.33122268559000E-06 4.40525889268000E-06 
4.48056064541000E-06 4.55714957652000E-06 4.63504768851000E-06 4.71427736001000E-06 
4.79486135217000E-06 4.87682281521000E-06 4.96018529507000E-06 5.04497274019000E-06 
5.13120950835000E-06 5.21892037371000E-06 5.30813053391000E-06 5.39886561728000E-06 
5.49115169028000E-06 5.58501526490000E-06 5.68048330633000E-06 5.77758324069000E-06 
5.87634296292000E-06 5.97679084477000E-06 6.07895574297000E-06 6.18286700752000E-06 
6.28855449012000E-06 6.39604855274000E-06 6.50538007633000E-06 6.61658046974000E-06 
6.72968167868000E-06 6.84471619495000E-06 6.96171706572000E-06 7.08071790309000E-06 
7.20175289370000E-06 7.32485680855000E-06 7.45006501302000E-06 7.57741347701000E-06 
7.70693878526000E-06 7.83867814789000E-06 7.97266941106000E-06 8.10895106787000E-06 
8.24756226942000E-06 8.38854283600000E-06 8.53193326862000E-06 8.67777476057000E-06 
8.82610920928000E-06 8.97697922837000E-06 9.13042815989000E-06 9.28650008673000E-06 
9.44523984535000E-06 9.60669303860000E-06 9.77090604886000E-06 9.93792605136000E-06 
1.01078010277000E-05 1.02805797797000E-05 1.04563119433000E-05 1.06350480030000E-05 
1.08168393062000E-05 1.10017380780000E-05 1.11897974363000E-05 1.13810714068000E-05 
1.15756149389000E-05 1.17734839212000E-05 1.19747351976000E-05 1.21794265837000E-05 
1.23876168834000E-05 1.25993659057000E-05 1.28147344820000E-05 1.30337844836000E-05 
1.32565788392000E-05 1.34831815534000E-05 1.37136577247000E-05 1.39480735646000E-05 
1.41864964160000E-05 1.44289947734000E-05 1.46756383018000E-05 1.49264978570000E-05 
1.51816455062000E-05 1.54411545485000E-05 1.57050995356000E-05 1.59735562939000E-05 
1.62466019458000E-05 1.65243149321000E-05 1.68067750343000E-05 1.70940633978000E-05 
1.73862625548000E-05 1.76834564487000E-05 1.79857304574000E-05 1.82931714185000E-05 
1.86058676537000E-05 1.89239089946000E-05 1.92473868084000E-05 1.95763940240000E-05 
1.99110251588000E-05 2.02513763457000E-05 2.05975453613000E-05 2.09496316530000E-05 
2.13077363685000E-05 2.16719623844000E-05 2.20424143357000E-05 2.24191986460000E-05 
2.28024235584000E-05 2.31921991657000E-05 2.35886374431000E-05 2.39918522796000E-05 
2.44019595109000E-05 2.48190769531000E-05 2.52433244357000E-05 2.56748238370000E-05 
2.61136991184000E-05 2.65600763602000E-05 2.70140837980000E-05 2.74758518593000E-05 
2.79455132011000E-05 2.84232027482000E-05 2.89090577314000E-05 2.94032177274000E-05 
2.99058246989000E-05 3.04170230352000E-05 3.09369595936000E-05 3.14657837418000E-05 
3.20036474008000E-05 3.25507050883000E-05 3.31071139636000E-05 3.36730338721000E-05 
3.42486273916000E-05 3.48340598790000E-05 3.54294995178000E-05 3.60351173661000E-05 
3.66510874064000E-05 3.72775865949000E-05 3.79147949126000E-05 3.85628954172000E-05 
3.92220742955000E-05 3.98925209167000E-05 4.05744278872000E-05 4.12679911057000E-05 
4.19734098195000E-05 4.26908866817000E-05 4.34206278096000E-05 4.41628428436000E-05 
4.49177450077000E-05 4.56855511708000E-05 4.64664819087000E-05 4.72607615677000E-05 
4.80686183289000E-05 4.88902842740000E-05 4.97259954517000E-05 5.05759919457000E-05 
5.14405179435000E-05 5.23198218066000E-05 5.32141561422000E-05 5.41237778750000E-05 
5.50489483219000E-05 5.59899332664000E-05 5.69470030353000E-05 5.79204325762000E-05 
5.89105015365000E-05 5.99174943440000E-05 6.09417002881000E-05 6.19834136035000E-05 
6.30429335542000E-05 6.41205645197000E-05 6.52166160826000E-05 6.63314031174000E-05 
6.74652458807000E-05 6.86184701036000E-05 6.97914070851000E-05 7.09843937874000E-05 
7.21977729324000E-05 7.34318931005000E-05 7.46871088305000E-05 7.59637807216000E-05 
7.72622755370000E-05 7.85829663090000E-05 7.99262324466000E-05 8.12924598442000E-05 
8.26820409923000E-05 8.40953750909000E-05 8.55328681635000E-05 8.69949331739000E-05 
8.84819901452000E-05 8.99944662801000E-05 9.15327960836000E-05 9.30974214882000E-05 
9.46887919806000E-05 9.63073647305000E-05 9.79536047227000E-05 9.96279848901000E-05 
1.01330986250000E-04 1.03063098041000E-04 1.04824817865000E-04 1.06616651832000E-04 
1.08439114699000E-04 1.10292730026000E-04 1.12178030320000E-04 1.14095557191000E-04 
1.16045861508000E-04 1.18029503555000E-04 1.20047053195000E-04 1.22099090030000E-04 
1.24186203571000E-04 1.26308993405000E-04 1.28468069369000E-04 1.30664051723000E-04 
1.32897571330000E-04 1.35169269838000E-04 1.37479799862000E-04 1.39829825172000E-04 
1.42220020885000E-04 1.44651073658000E-04 1.47123681885000E-04 1.49638555899000E-04 
1.52196418175000E-04 1.54798003536000E-04 1.57444059368000E-04 1.60135345832000E-04 
1.62872636082000E-04 1.65656716489000E-04 1.68488386864000E-04 1.71368460693000E-04 
1.74297765364000E-04 1.77277142411000E-04 1.80307447750000E-04 1.83389551930000E-04 
1.86524340379000E-04 1.89712713662000E-04 1.92955587737000E-04 1.96253894217000E-04 
1.99608580645000E-04 2.03020610754000E-04 2.06490964757000E-04 2.10020639618000E-04 
2.13610649344000E-04 2.17262025277000E-04 2.20975816385000E-04 2.24753089569000E-04 
2.28594929967000E-04 2.32502441265000E-04 2.36476746015000E-04 2.40518985958000E-04 
2.44630322351000E-04 2.48811936302000E-04 2.53065029108000E-04 2.57390822600000E-04 
2.61790559494000E-04 2.66265503750000E-04 2.70816940933000E-04 2.75446178582000E-04 
2.80154546589000E-04 2.84943397575000E-04 2.89814107286000E-04 2.94768074981000E-04 
2.99806723841000E-04 3.04931501370000E-04 3.10143879820000E-04 3.15445356604000E-04 
3.20837454736000E-04 3.26321723259000E-04 3.31899737699000E-04 3.37573100512000E-04 
3.43343441543000E-04 3.49212418502000E-04 3.55181717430000E-04 3.61253053193000E-04 
3.67428169968000E-04 3.73708841746000E-04 3.80096872842000E-04 3.86594098415000E-04 
3.93202384992000E-04 3.99923631005000E-04 4.06759767338000E-04 4.13712757881000E-04 
4.20784600094000E-04 4.27977325580000E-04 4.35293000670000E-04 4.42733727015000E-04 
4.50301642193000E-04 4.57998920320000E-04 4.65827772673000E-04 4.73790448331000E-04 
4.81889234817000E-04 4.90126458755000E-04 4.98504486540000E-04 5.07025725018000E-04 
5.15692622175000E-04 5.24507667844000E-04 5.33473394416000E-04 5.42592377570000E-04 
5.51867237016000E-04 5.61300637239000E-04 5.70895288274000E-04 5.80653946478000E-04 
5.90579415324000E-04 6.00674546209000E-04 6.10942239267000E-04 6.21385444207000E-04 
6.32007161162000E-04 6.42810441545000E-04 6.53798388928000E-04 6.64974159937000E-04 
6.76340965154000E-04 6.87902070042000E-04 6.99660795884000E-04 7.11620520734000E-04 
7.23784680389000E-04 7.36156769376000E-04 7.48740341958000E-04 7.61539013152000E-04 
7.74556459768000E-04 7.87796421466000E-04 8.01262701831000E-04 8.14959169466000E-04 
8.28889759100000E-04 8.43058472722000E-04 8.57469380729000E-04 8.72126623097000E-04 
8.87034410567000E-04 9.02197025859000E-04 9.17618824897000E-04 9.33304238068000E-04 
9.49257771485000E-04 9.65484008292000E-04 9.81987609971000E-04 9.98773317688000E-04 
1.01584595365000E-03 1.03321042250000E-03 1.05087171271000E-03 1.06883489803000E-03 
1.08710513893000E-03 1.10568768410000E-03 1.12458787195000E-03 1.14381113213000E-03 
1.16336298712000E-03 1.18324905378000E-03 1.20347504499000E-03 1.22404677130000E-03 
1.24497014256000E-03 1.26625116965000E-03 1.28789596620000E-03 1.30991075033000E-03 
1.33230184648000E-03 1.35507568717000E-03 1.37823881488000E-03 1.40179788393000E-03 
1.42575966239000E-03 1.45013103401000E-03 1.47491900021000E-03 1.50013068210000E-03 
1.52577332251000E-03 1.55185428807000E-03 1.57838107133000E-03 1.60536129294000E-03 
1.63280270378000E-03 1.66071318724000E-03 1.68910076146000E-03 1.71797358164000E-03 
1.74733994239000E-03 1.77720828010000E-03 1.80758717535000E-03 1.83848535542000E-03 
1.86991169676000E-03 1.90187522754000E-03 1.93438513027000E-03 1.96745074442000E-03 
2.00108156909000E-03 2.03528726578000E-03 2.07007766111000E-03 2.10546274970000E-03 
2.14145269700000E-03 2.17805784221000E-03 2.21528870130000E-03 2.25315596996000E-03 
2.29167052673000E-03 2.33084343610000E-03 2.37068595168000E-03 2.41120951946000E-03 
2.45242578108000E-03 2.49434657717000E-03 2.53698395076000E-03 2.58035015075000E-03 
2.62445763541000E-03 2.66931907596000E-03 2.71494736022000E-03 2.76135559633000E-03 
2.80855711646000E-03 2.85656548071000E-03 2.90539448094000E-03 2.95505814478000E-03 
3.00557073965000E-03 3.05694677683000E-03 3.10920101566000E-03 3.16234846778000E-03 
3.21640440142000E-03 3.27138434580000E-03 3.32730409561000E-03 3.38417971549000E-03 
3.44202754472000E-03 3.50086420186000E-03 3.56070658953000E-03 3.62157189931000E-03 
3.68347761662000E-03 3.74644152576000E-03 3.81048171506000E-03 3.87561658202000E-03 
3.94186483862000E-03 4.00924551672000E-03 4.07777797347000E-03 4.14748189693000E-03 
4.21837731167000E-03 4.29048458459000E-03 4.36382443070000E-03 4.43841791914000E-03 
4.51428647915000E-03 4.59145190631000E-03 4.66993636875000E-03 4.74976241355000E-03 
4.83095297318000E-03 4.91353137211000E-03 4.99752133353000E-03 5.08294698611000E-03 