<UPF version="2.0.1">
  <PP_INFO>
Generated using Vanderbilt code, version   7  3  6
Author: kfg    Generation date:   23    7 2013
Automatically converted from original format
1        The Pseudo was generated with a Scalar-Relativistic Calculation
1.70000000000E+00    Local Potential cutoff radius
nl pn  l   occ               Rcut            Rcut US             E pseu
4S  4  0  2.00      0.00000000000      1.60000000000     -2.93165383700
4P  4  1  6.00      0.00000000000      1.60000000000     -1.61014886000
4D  4  2  1.00      0.00000000000      1.60000000000     -0.06650286200
5S  5  0  1.00      0.00000000000      1.60000000000     -0.24208208100
5P  5  1  0.00      0.00000000000      1.60000000000     -0.08850061100
</PP_INFO>
  <PP_HEADER element="Sr" pseudo_type="US" relativistic="scalar" is_ultrasoft="T" is_paw="F" is_coulomb="F" has_so="F" has_wfc="F" has_gipaw="F" core_correction="T" functional="PBESOL" z_valence="10.0" total_psenergy="-69.7546305236" wfc_cutoff="0.0" rho_cutoff="0.0" l_max="2" mesh_size="883" number_of_wfc="5" number_of_proj="6"/>
  <PP_MESH>
    <PP_R>
0.00000000000000E+00 1.11502129158000E-06 2.24910231600000E-06 3.40256887279000E-06 
4.57575233058000E-06 5.76898972226000E-06 6.98262384186000E-06 8.21700334297000E-06 
9.47248283894000E-06 1.07494230047000E-05 1.20481906805000E-05 1.33691589772000E-05 
1.47127073833000E-05 1.60792218743000E-05 1.74690950235000E-05 1.88827261144000E-05 
2.03205212559000E-05 2.17828934987000E-05 2.32702629542000E-05 2.47830569146000E-05 
2.63217099766000E-05 2.78866641653000E-05 2.94783690618000E-05 3.10972819321000E-05 
3.27438678585000E-05 3.44185998733000E-05 3.61219590947000E-05 3.78544348647000E-05 
3.96165248901000E-05 4.14087353853000E-05 4.32315812177000E-05 4.50855860556000E-05 
4.69712825187000E-05 4.88892123312000E-05 5.08399264772000E-05 5.28239853590000E-05 
5.48419589584000E-05 5.68944270002000E-05 5.89819791187000E-05 6.11052150273000E-05 
6.32647446905000E-05 6.54611884994000E-05 6.76951774498000E-05 6.99673533236000E-05 
7.22783688729000E-05 7.46288880077000E-05 7.70195859866000E-05 7.94511496111000E-05 
8.19242774222000E-05 8.44396799016000E-05 8.69980796760000E-05 8.96002117239000E-05 
9.22468235876000E-05 9.49386755875000E-05 9.76765410406000E-05 1.00461206483000E-04 
1.03293471894000E-04 1.06174150930000E-04 1.09104071153000E-04 1.12084074274000E-04 
1.15115016389000E-04 1.18197768230000E-04 1.21333215411000E-04 1.24522258686000E-04 
1.27765814205000E-04 1.31064813778000E-04 1.34420205146000E-04 1.37832952246000E-04 
1.41304035494000E-04 1.44834452067000E-04 1.48425216184000E-04 1.52077359402000E-04 
1.55791930911000E-04 1.59569997836000E-04 1.63412645543000E-04 1.67320977949000E-04 
1.71296117843000E-04 1.75339207206000E-04 1.79451407539000E-04 1.83633900198000E-04 
1.87887886731000E-04 1.92214589227000E-04 1.96615250665000E-04 2.01091135267000E-04 
2.05643528871000E-04 2.10273739290000E-04 2.14983096693000E-04 2.19772953990000E-04 
2.24644687212000E-04 2.29599695914000E-04 2.34639403575000E-04 2.39765258004000E-04 
2.44978731762000E-04 2.50281322577000E-04 2.55674553782000E-04 2.61159974748000E-04 
2.66739161329000E-04 2.72413716319000E-04 2.78185269907000E-04 2.84055480148000E-04 
2.90026033441000E-04 2.96098645010000E-04 3.02275059399000E-04 3.08557050972000E-04 
3.14946424423000E-04 3.21445015297000E-04 3.28054690512000E-04 3.34777348900000E-04 
3.41614921752000E-04 3.48569373368000E-04 3.55642701629000E-04 3.62836938565000E-04 
3.70154150942000E-04 3.77596440851000E-04 3.85165946321000E-04 3.92864841922000E-04 
4.00695339399000E-04 4.08659688301000E-04 4.16760176633000E-04 4.24999131508000E-04 
4.33378919818000E-04 4.41901948915000E-04 4.50570667299000E-04 4.59387565325000E-04 
4.68355175919000E-04 4.77476075300000E-04 4.86752883726000E-04 4.96188266246000E-04 
5.05784933462000E-04 5.15545642311000E-04 5.25473196856000E-04 5.35570449090000E-04 
5.45840299759000E-04 5.56285699193000E-04 5.66909648153000E-04 5.77715198692000E-04 
5.88705455039000E-04 5.99883574479000E-04 6.11252768270000E-04 6.22816302563000E-04 
6.34577499336000E-04 6.46539737354000E-04 6.58706453136000E-04 6.71081141944000E-04 
6.83667358787000E-04 6.96468719442000E-04 7.09488901491000E-04 7.22731645381000E-04 
7.36200755496000E-04 7.49900101251000E-04 7.63833618203000E-04 7.78005309181000E-04 
7.92419245439000E-04 8.07079567820000E-04 8.21990487952000E-04 8.37156289454000E-04 
8.52581329167000E-04 8.68270038407000E-04 8.84226924236000E-04 9.00456570758000E-04 
9.16963640437000E-04 9.33752875435000E-04 9.50829098974000E-04 9.68197216723000E-04 
9.85862218205000E-04 1.00382917823000E-03 1.02210325837000E-03 1.04068970840000E-03 
1.05959386786000E-03 1.07882116754000E-03 1.09837713107000E-03 1.11826737651000E-03 
1.13849761793000E-03 1.15907366710000E-03 1.18000143511000E-03 1.20128693411000E-03 
1.22293627901000E-03 1.24495568924000E-03 1.26735149056000E-03 1.29013011685000E-03 
1.31329811197000E-03 1.33686213163000E-03 1.36082894532000E-03 1.38520543824000E-03 
1.40999861329000E-03 1.43521559306000E-03 1.46086362191000E-03 1.48695006801000E-03 
1.51348242551000E-03 1.54046831663000E-03 1.56791549389000E-03 1.59583184235000E-03 
1.62422538182000E-03 1.65310426923000E-03 1.68247680090000E-03 1.71235141502000E-03 
1.74273669397000E-03 1.77364136686000E-03 1.80507431200000E-03 1.83704455947000E-03 
1.86956129370000E-03 1.90263385612000E-03 1.93627174784000E-03 1.97048463238000E-03 
2.00528233842000E-03 2.04067486269000E-03 2.07667237277000E-03 2.11328521004000E-03 
2.15052389267000E-03 2.18839911860000E-03 2.22692176867000E-03 2.26610290967000E-03 
2.30595379760000E-03 2.34648588084000E-03 2.38771080348000E-03 2.42964040863000E-03 
2.47228674187000E-03 2.51566205466000E-03 2.55977880788000E-03 2.60464967543000E-03 
2.65028754784000E-03 2.69670553599000E-03 2.74391697486000E-03 2.79193542739000E-03 
2.84077468834000E-03 2.89044878831000E-03 2.94097199769000E-03 2.99235883082000E-03 
3.04462405015000E-03 3.09778267046000E-03 3.15184996319000E-03 3.20684146084000E-03 
3.26277296139000E-03 3.31966053289000E-03 3.37752051803000E-03 3.43636953886000E-03 
3.49622450158000E-03 3.55710260135000E-03 3.61902132727000E-03 3.68199846739000E-03 
3.74605211384000E-03 3.81120066797000E-03 3.87746284572000E-03 3.94485768292000E-03 
4.01340454080000E-03 4.08312311156000E-03 4.15403342398000E-03 4.22615584923000E-03 
4.29951110668000E-03 4.37412026989000E-03 4.45000477261000E-03 4.52718641500000E-03 
4.60568736986000E-03 4.68553018898000E-03 4.76673780966000E-03 4.84933356128000E-03 
4.93334117201000E-03 5.01878477560000E-03 5.10568891834000E-03 5.19407856613000E-03 
5.28397911158000E-03 5.37541638139000E-03 5.46841664372000E-03 5.56300661574000E-03 
5.65921347132000E-03 5.75706484883000E-03 5.85658885907000E-03 5.95781409337000E-03 
6.06076963179000E-03 6.16548505144000E-03 6.27199043505000E-03 6.38031637956000E-03 
6.49049400490000E-03 6.60255496298000E-03 6.71653144675000E-03 6.83245619944000E-03 
6.95036252400000E-03 7.07028429261000E-03 7.19225595650000E-03 7.31631255576000E-03 
7.44248972945000E-03 7.57082372583000E-03 7.70135141277000E-03 7.83411028835000E-03 
7.96913849163000E-03 8.10647481360000E-03 8.24615870832000E-03 8.38823030428000E-03 
8.53273041590000E-03 8.67970055525000E-03 8.82918294403000E-03 8.98122052562000E-03 
9.13585697748000E-03 9.29313672368000E-03 9.45310494764000E-03 9.61580760513000E-03 
9.78129143748000E-03 9.94960398499000E-03 1.01207936006000E-02 1.02949094638000E-02 
1.04720015946000E-02 1.06521208683000E-02 1.08353190296000E-02 1.10216487078000E-02 
1.12111634318000E-02 1.14039176455000E-02 1.15999667235000E-02 1.17993669868000E-02 
1.20021757194000E-02 1.22084511842000E-02 1.24182526402000E-02 1.26316403593000E-02 
1.28486756437000E-02 1.30694208433000E-02 1.32939393740000E-02 1.35222957357000E-02 
1.37545555307000E-02 1.39907854828000E-02 1.42310534562000E-02 1.44754284752000E-02 
1.47239807442000E-02 1.49767816673000E-02 1.52339038694000E-02 1.54954212167000E-02 
1.57614088381000E-02 1.60319431466000E-02 1.63071018616000E-02 1.65869640308000E-02 
1.68716100532000E-02 1.71611217021000E-02 1.74555821486000E-02 1.77550759855000E-02 
1.80596892516000E-02 1.83695094563000E-02 1.86846256050000E-02 1.90051282245000E-02 
1.93311093889000E-02 1.96626627465000E-02 1.99998835459000E-02 2.03428686643000E-02 
2.06917166347000E-02 2.10465276742000E-02 2.14074037132000E-02 2.17744484245000E-02 
2.21477672529000E-02 2.25274674457000E-02 2.29136580833000E-02 2.33064501109000E-02 
2.37059563701000E-02 2.41122916312000E-02 2.45255726265000E-02 2.49459180836000E-02 
2.53734487596000E-02 2.58082874759000E-02 2.62505591532000E-02 2.67003908476000E-02 
2.71579117870000E-02 2.76232534084000E-02 2.80965493953000E-02 2.85779357166000E-02 
2.90675506652000E-02 2.95655348980000E-02 3.00720314763000E-02 3.05871859068000E-02 
3.11111461833000E-02 3.16440628294000E-02 3.21860889419000E-02 3.27373802343000E-02 
3.32980950820000E-02 3.38683945674000E-02 3.44484425266000E-02 3.50384055962000E-02 
3.56384532611000E-02 3.62487579034000E-02 3.68694948518000E-02 3.75008424320000E-02 
3.81429820180000E-02 3.87960980840000E-02 3.94603782577000E-02 4.01360133738000E-02 
4.08231975294000E-02 4.15221281390000E-02 4.22330059920000E-02 4.29560353098000E-02 
4.36914238047000E-02 4.44393827396000E-02 4.52001269886000E-02 4.59738750988000E-02 
4.67608493532000E-02 4.75612758341000E-02 4.83753844886000E-02 4.92034091944000E-02 
5.00455878269000E-02 5.09021623278000E-02 5.17733787743000E-02 5.26594874502000E-02 
5.35607429171000E-02 5.44774040885000E-02 5.54097343032000E-02 5.63580014019000E-02 
5.73224778031000E-02 5.83034405825000E-02 5.93011715514000E-02 6.03159573389000E-02 
6.13480894731000E-02 6.23978644657000E-02 6.34655838967000E-02 6.45515545013000E-02 
6.56560882578000E-02 6.67795024773000E-02 6.79221198951000E-02 6.90842687629000E-02 
7.02662829438000E-02 7.14685020074000E-02 7.26912713281000E-02 7.39349421839000E-02 
7.51998718572000E-02 7.64864237379000E-02 7.77949674275000E-02 7.91258788452000E-02 
8.04795403363000E-02 8.18563407813000E-02 8.32566757084000E-02 8.46809474068000E-02 
8.61295650421000E-02 8.76029447742000E-02 8.91015098765000E-02 9.06256908579000E-02 
9.21759255860000E-02 9.37526594132000E-02 9.53563453046000E-02 9.69874439683000E-02 
9.86464239872000E-02 1.00333761954000E-01 1.02049942609000E-01 1.03795458977000E-01 
1.05570812511000E-01 1.07376513236000E-01 1.09213079895000E-01 1.11081040098000E-01 
1.12980930474000E-01 1.14913296824000E-01 1.16878694280000E-01 1.18877687462000E-01 
1.20910850643000E-01 1.22978767911000E-01 1.25082033339000E-01 1.27221251154000E-01 
1.29397035912000E-01 1.31610012674000E-01 1.33860817186000E-01 1.36150096059000E-01 
1.38478506959000E-01 1.40846718794000E-01 1.43255411906000E-01 1.45705278265000E-01 
1.48197021670000E-01 1.50731357951000E-01 1.53309015173000E-01 1.55930733849000E-01 
1.58597267146000E-01 1.61309381109000E-01 1.64067854875000E-01 1.66873480900000E-01 
1.69727065186000E-01 1.72629427513000E-01 1.75581401674000E-01 1.78583835713000E-01 
1.81637592172000E-01 1.84743548335000E-01 1.87902596485000E-01 1.91115644154000E-01 
1.94383614388000E-01 1.97707446013000E-01 2.01088093901000E-01 2.04526529246000E-01 
2.08023739845000E-01 2.11580730378000E-01 2.15198522700000E-01 2.18878156133000E-01 
2.22620687764000E-01 2.26427192750000E-01 2.30298764627000E-01 2.34236515621000E-01 
2.38241576973000E-01 2.42315099260000E-01 2.46458252725000E-01 2.50672227616000E-01 
2.54958234527000E-01 2.59317504744000E-01 2.63751290602000E-01 2.68260865841000E-01 
2.72847525976000E-01 2.77512588664000E-01 2.82257394088000E-01 2.87083305339000E-01 
2.91991708808000E-01 2.96984014583000E-01 3.02061656859000E-01 3.07226094343000E-01 
3.12478810678000E-01 3.17821314868000E-01 3.23255141712000E-01 3.28781852241000E-01 
3.34403034174000E-01 3.40120302367000E-01 3.45935299281000E-01 3.51849695451000E-01 
3.57865189970000E-01 3.63983510973000E-01 3.70206416134000E-01 3.76535693174000E-01 
3.82973160371000E-01 3.89520667087000E-01 3.96180094292000E-01 4.02953355110000E-01 
4.09842395370000E-01 4.16849194159000E-01 4.23975764394000E-01 4.31224153401000E-01 
4.38596443502000E-01 4.46094752614000E-01 4.53721234856000E-01 4.61478081167000E-01 
4.69367519941000E-01 4.77391817660000E-01 4.85553279550000E-01 4.93854250240000E-01 
5.02297114440000E-01 5.10884297620000E-01 5.19618266712000E-01 5.28501530816000E-01 
5.37536641923000E-01 5.46726195644000E-01 5.56072831962000E-01 5.65579235983000E-01 
5.75248138713000E-01 5.85082317841000E-01 5.95084598537000E-01 6.05257854262000E-01 
6.15605007596000E-01 6.26129031076000E-01 6.36832948049000E-01 6.47719833545000E-01 
6.58792815154000E-01 6.70055073930000E-01 6.81509845302000E-01 6.93160420004000E-01 
7.05010145022000E-01 7.17062424550000E-01 7.29320720977000E-01 7.41788555874000E-01 
7.54469511008000E-01 7.67367229372000E-01 7.80485416231000E-01 7.93827840187000E-01 
8.07398334259000E-01 8.21200796988000E-01 8.35239193555000E-01 8.49517556919000E-01 
8.64039988978000E-01 8.78810661745000E-01 8.93833818549000E-01 9.09113775251000E-01 
9.24654921489000E-01 9.40461721932000E-01 9.56538717569000E-01 9.72890527009000E-01 
9.89521847810000E-01 1.00643745783000E+00 1.02364221659000E+00 1.04114106670000E+00 
1.05893903523000E+00 1.07704123518000E+00 1.09545286699000E+00 1.11417921994000E+00 
1.13322567376000E+00 1.15259770013000E+00 1.17230086426000E+00 1.19234082647000E+00 
1.21272334388000E+00 1.23345427197000E+00 1.25453956634000E+00 1.27598528440000E+00 
1.29779758707000E+00 1.31998274062000E+00 1.34254711841000E+00 1.36549720274000E+00 
1.38883958674000E+00 1.41258097621000E+00 1.43672819160000E+00 1.46128816994000E+00 
1.48626796684000E+00 1.51167475850000E+00 1.53751584380000E+00 1.56379864639000E+00 
1.59053071682000E+00 1.61771973467000E+00 1.64537351085000E+00 1.67349998973000E+00 
1.70210725152000E+00 1.73120351452000E+00 1.76079713753000E+00 1.79089662223000E+00 
1.82151061560000E+00 1.85264791247000E+00 1.88431745798000E+00 1.91652835017000E+00 
1.94928984260000E+00 1.98261134703000E+00 2.01650243606000E+00 2.05097284597000E+00 
2.08603247943000E+00 2.12169140839000E+00 2.15795987698000E+00 2.19484830442000E+00 
2.23236728804000E+00 2.27052760633000E+00 2.30934022200000E+00 2.34881628517000E+00 
2.38896713655000E+00 2.42980431070000E+00 2.47133953934000E+00 2.51358475475000E+00 
2.55655209316000E+00 2.60025389826000E+00 2.64470272472000E+00 2.68991134184000E+00 
2.73589273717000E+00 2.78266012029000E+00 2.83022692655000E+00 2.87860682097000E+00 
2.92781370218000E+00 2.97786170634000E+00 3.02876521129000E+00 3.08053884061000E+00 
3.13319746787000E+00 3.18675622087000E+00 3.24123048601000E+00 3.29663591268000E+00 
3.35298841780000E+00 3.41030419035000E+00 3.46859969604000E+00 3.52789168204000E+00 
3.58819718179000E+00 3.64953351990000E+00 3.71191831710000E+00 3.77536949535000E+00 
3.83990528294000E+00 3.90554421975000E+00 3.97230516257000E+00 4.04020729055000E+00 
4.10927011063000E+00 4.17951346324000E+00 4.25095752793000E+00 4.32362282920000E+00 
4.39753024238000E+00 4.47270099964000E+00 4.54915669609000E+00 4.62691929596000E+00 
4.70601113896000E+00 4.78645494663000E+00 4.86827382892000E+00 4.95149129082000E+00 
5.03613123909000E+00 5.12221798915000E+00 5.20977627206000E+00 5.29883124161000E+00 
5.38940848159000E+00 5.48153401307000E+00 5.57523430194000E+00 5.67053626649000E+00 
5.76746728510000E+00 5.86605520421000E+00 5.96632834620000E+00 6.06831551761000E+00 
6.17204601738000E+00 6.27754964528000E+00 6.38485671045000E+00 6.49399804015000E+00 
6.60500498855000E+00 6.71790944582000E+00 6.83274384721000E+00 6.94954118243000E+00 
7.06833500509000E+00 7.18915944236000E+00 7.31204920476000E+00 7.43703959614000E+00 
7.56416652383000E+00 7.69346650892000E+00 7.82497669680000E+00 7.95873486781000E+00 
8.09477944808000E+00 8.23314952058000E+00 8.37388483637000E+00 8.51702582596000E+00 
8.66261361100000E+00 8.81069001604000E+00 8.96129758056000E+00 9.11447957122000E+00 
9.27027999422000E+00 9.42874360801000E+00 9.58991593613000E+00 9.75384328026000E+00 
9.92057273356000E+00 1.00901521942000E+01 1.02626303790000E+01 1.04380568377000E+01 
1.06164819669000E+01 1.07979570246000E+01 1.09825341452000E+01 1.11702663540000E+01 
1.13612075830000E+01 1.15554126858000E+01 1.17529374538000E+01 1.19538386320000E+01 
1.21581739355000E+01 1.23660020659000E+01 1.25773827280000E+01 1.27923766476000E+01 
1.30110455882000E+01 1.32334523692000E+01 1.34596608837000E+01 1.36897361170000E+01 
1.39237441654000E+01 1.41617522547000E+01 1.44038287602000E+01 1.46500432257000E+01 
1.49004663839000E+01 1.51551701765000E+01 1.54142277749000E+01 1.56777136014000E+01 
1.59457033504000E+01 1.62182740102000E+01 1.64955038850000E+01 1.67774726175000E+01 
1.70642612121000E+01 1.73559520574000E+01 1.76526289507000E+01 1.79543771213000E+01 
1.82612832559000E+01 1.85734355225000E+01 1.88909235964000E+01 1.92138386859000E+01 
1.95422735581000E+01 1.98763225662000E+01 2.02160816758000E+01 2.05616484932000E+01 
2.09131222931000E+01 2.12706040471000E+01 2.16341964528000E+01 2.20040039632000E+01 
2.23801328169000E+01 2.27626910684000E+01 2.31517886193000E+01 2.35475372498000E+01 
2.39500506509000E+01 2.43594444567000E+01 2.47758362784000E+01 2.51993457371000E+01 
2.56300944989000E+01 2.60682063097000E+01 2.65138070304000E+01 2.69670246736000E+01 
2.74279894399000E+01 2.78968337555000E+01 2.83736923104000E+01 2.88587020967000E+01 
2.93520024485000E+01 2.98537350813000E+01 3.03640441333000E+01 3.08830762063000E+01 
3.14109804082000E+01 3.19479083957000E+01 3.24940144179000E+01 3.30494553603000E+01 
3.36143907904000E+01 3.41889830033000E+01 3.47733970681000E+01 3.53678008758000E+01 
3.59723651870000E+01 3.65872636814000E+01 3.72126730074000E+01 3.78487728329000E+01 
3.84957458973000E+01 3.91537780632000E+01 3.98230583707000E+01 4.05037790910000E+01 
4.11961357819000E+01 4.19003273443000E+01 4.26165560786000E+01 4.33450277435000E+01 
4.40859516149000E+01 4.48395405458000E+01 4.56060110278000E+01 4.63855832530000E+01 
4.71784811774000E+01 4.79849325852000E+01 4.88051691543000E+01 4.96394265229000E+01 
5.04879443568000E+01 5.13509664190000E+01 5.22287406388000E+01 5.31215191839000E+01 
5.40295585323000E+01 5.49531195460000E+01 5.58924675464000E+01 5.68478723898000E+01 
5.78196085457000E+01 5.88079551750000E+01 5.98131962105000E+01 6.08356204387000E+01 
6.18755215821000E+01 6.29331983842000E+01 6.40089546952000E+01 6.51030995590000E+01 
6.62159473022000E+01 6.73478176244000E+01 6.84990356902000E+01 6.96699322222000E+01 
7.08608435963000E+01 7.20721119382000E+01 7.33040852220000E+01 7.45571173697000E+01 
7.58315683532000E+01 7.71278042977000E+01 7.84461975866000E+01 7.97871269688000E+01 
8.11509776673000E+01 8.25381414901000E+01 8.39490169426000E+01 8.53840093419000E+01 
8.68435309335000E+01 8.83280010098000E+01 8.98378460303000E+01 9.13734997443000E+01 
9.29354033154000E+01 9.45240054482000E+01 9.61397625174000E+01 9.77831386987000E+01 
9.94546061023000E+01 1.01154644908000E+02 1.02883743505000E+02 1.04642398630000E+02 
1.06431115509000E+02 1.08250408007000E+02 1.10100798771000E+02 1.11982819383000E+02 
1.13897010510000E+02 1.15843922064000E+02 1.17824113353000E+02 1.19838153249000E+02 
1.21886620346000E+02 1.23970103129000E+02 1.26089200143000E+02 1.28244520163000E+02 
1.30436682370000E+02 1.32666316531000E+02 1.34934063176000E+02 1.37240573786000E+02 
1.39586510975000E+02 1.41972548686000E+02 1.44399372382000E+02 1.46867679242000E+02 
1.49378178363000E+02 1.51931590963000E+02 1.54528650588000E+02 1.57170103322000E+02 
1.59856708005000E+02 1.62589236445000E+02 1.65368473646000E+02 1.68195218027000E+02 
1.71070281659000E+02 1.73994490491000E+02 1.76968684592000E+02 1.79993718390000E+02 
1.83070460919000E+02 1.86199796068000E+02 1.89382622834000E+02 1.92619855581000E+02 
1.95912424304000E+02 1.99261274895000E+02 2.02667369412000E+02 
</PP_R>
    <PP_RAB>
1.10559865150000E-06 1.12449731746000E-06 1.14371902974000E-06 1.16326931036000E-06 
1.18315377575000E-06 1.20337813832000E-06 1.22394820814000E-06 1.24486989460000E-06 
1.26614920809000E-06 1.28779226175000E-06 1.30980527321000E-06 1.33219456637000E-06 
1.35496657325000E-06 1.37812783581000E-06 1.40168500783000E-06 1.42564485683000E-06 
1.45001426601000E-06 1.47480023623000E-06 1.50000988801000E-06 1.52565046361000E-06 
1.55172932907000E-06 1.57825397634000E-06 1.60523202543000E-06 1.63267122662000E-06 
1.66057946266000E-06 1.68896475105000E-06 1.71783524633000E-06 1.74719924243000E-06 
1.77706517506000E-06 1.80744162413000E-06 1.83833731621000E-06 1.86976112702000E-06 
1.90172208402000E-06 1.93422936898000E-06 1.96729232061000E-06 2.00092043725000E-06 
2.03512337961000E-06 2.06991097354000E-06 2.10529321284000E-06 2.14128026213000E-06 
2.17788245981000E-06 2.21511032098000E-06 2.25297454048000E-06 2.29148599597000E-06 
2.33065575104000E-06 2.37049505841000E-06 2.41101536314000E-06 2.45222830593000E-06 
2.49414572645000E-06 2.53677966678000E-06 2.58014237482000E-06 2.62424630784000E-06 
2.66910413604000E-06 2.71472874621000E-06 2.76113324541000E-06 2.80833096476000E-06 
2.85633546326000E-06 2.90516053167000E-06 2.95482019647000E-06 3.00532872395000E-06 
3.05670062420000E-06 3.10895065540000E-06 3.16209382796000E-06 3.21614540889000E-06 
3.27112092616000E-06 3.32703617317000E-06 3.38390721329000E-06 3.44175038448000E-06 
3.50058230395000E-06 3.56041987297000E-06 3.62128028173000E-06 3.68318101424000E-06 
3.74613985338000E-06 3.81017488601000E-06 3.87530450816000E-06 3.94154743030000E-06 
4.00892268274000E-06 4.07744962109000E-06 4.14714793182000E-06 4.21803763790000E-06 
4.29013910457000E-06 4.36347304519000E-06 4.43806052717000E-06 4.51392297807000E-06 
4.59108219168000E-06 4.66956033437000E-06 4.74937995139000E-06 4.83056397336000E-06 
4.91313572288000E-06 4.99711892123000E-06 5.08253769514000E-06 5.16941658378000E-06 
5.25778054577000E-06 5.34765496637000E-06 5.43906566476000E-06 5.53203890147000E-06 
5.62660138590000E-06 5.72278028403000E-06 5.82060322619000E-06 5.92009831503000E-06 
6.02129413356000E-06 6.12421975337000E-06 6.22890474301000E-06 6.33537917645000E-06 
6.44367364173000E-06 6.55381924976000E-06 6.66584764323000E-06 6.77979100575000E-06 
6.89568207102000E-06 7.01355413232000E-06 7.13344105200000E-06 7.25537727126000E-06 
7.37939782000000E-06 7.50553832695000E-06 7.63383502982000E-06 7.76432478577000E-06 
7.89704508199000E-06 8.03203404644000E-06 8.16933045885000E-06 8.30897376181000E-06 
8.45100407215000E-06 8.59546219243000E-06 8.74238962267000E-06 8.89182857227000E-06 
9.04382197216000E-06 9.19841348709000E-06 9.35564752822000E-06 9.51556926585000E-06 
9.67822464239000E-06 9.84366038559000E-06 1.00119240219000E-05 1.01830638903000E-05 
1.03571291559000E-05 1.05341698243000E-05 1.07142367558000E-05 1.08973816802000E-05 
1.10836572115000E-05 1.12731168630000E-05 1.14658150629000E-05 1.16618071695000E-05 
1.18611494877000E-05 1.20638992846000E-05 1.22701148063000E-05 1.24798552946000E-05 
1.26931810038000E-05 1.29101532183000E-05 1.31308342700000E-05 1.33552875563000E-05 
1.35835775582000E-05 1.38157698592000E-05 1.40519311634000E-05 1.42921293156000E-05 
1.45364333200000E-05 1.47849133603000E-05 1.50376408202000E-05 1.52946883033000E-05 
1.55561296543000E-05 1.58220399804000E-05 1.60924956724000E-05 1.63675744271000E-05 
1.66473552691000E-05 1.69319185741000E-05 1.72213460917000E-05 1.75157209688000E-05 
1.78151277736000E-05 1.81196525199000E-05 1.84293826917000E-05 1.87444072685000E-05 
1.90648167508000E-05 1.93907031860000E-05 1.97221601951000E-05 2.00592829991000E-05 
2.04021684470000E-05 2.07509150430000E-05 2.11056229754000E-05 2.14663941449000E-05 
2.18333321940000E-05 2.22065425370000E-05 2.25861323899000E-05 2.29722108016000E-05 
2.33648886849000E-05 2.37642788486000E-05 2.41704960298000E-05 2.45836569267000E-05 
2.50038802326000E-05 2.54312866694000E-05 2.58659990228000E-05 2.63081421772000E-05 
2.67578431517000E-05 2.72152311367000E-05 2.76804375311000E-05 2.81535959795000E-05 
2.86348424112000E-05 2.91243150790000E-05 2.96221545990000E-05 3.01285039908000E-05 
3.06435087188000E-05 3.11673167339000E-05 3.17000785159000E-05 3.22419471171000E-05 
3.27930782057000E-05 3.33536301112000E-05 3.39237638692000E-05 3.45036432680000E-05 
3.50934348960000E-05 3.56933081886000E-05 3.63034354780000E-05 3.69239920420000E-05 
3.75551561543000E-05 3.81971091363000E-05 3.88500354086000E-05 3.95141225442000E-05 
4.01895613227000E-05 4.08765457844000E-05 4.15752732867000E-05 4.22859445605000E-05 
4.30087637680000E-05 4.37439385610000E-05 4.44916801410000E-05 4.52522033198000E-05 
4.60257265810000E-05 4.68124721428000E-05 4.76126660219000E-05 4.84265380987000E-05 
4.92543221828000E-05 5.00962560805000E-05 5.09525816632000E-05 5.18235449366000E-05 
5.27093961116000E-05 5.36103896762000E-05 5.45267844683000E-05 5.54588437505000E-05 
5.64068352853000E-05 5.73710314124000E-05 5.83517091266000E-05 5.93491501577000E-05 
6.03636410511000E-05 6.13954732506000E-05 6.24449431814000E-05 6.35123523361000E-05 
6.45980073606000E-05 6.57022201426000E-05 6.68253079010000E-05 6.79675932773000E-05 
6.91294044278000E-05 7.03110751186000E-05 7.15129448207000E-05 7.27353588079000E-05 
7.39786682563000E-05 7.52432303445000E-05 7.65294083568000E-05 7.78375717872000E-05 
7.91680964457000E-05 8.05213645664000E-05 8.18977649169000E-05 8.32976929105000E-05 
8.47215507195000E-05 8.61697473905000E-05 8.76426989624000E-05 8.91408285859000E-05 
9.06645666444000E-05 9.22143508785000E-05 9.37906265111000E-05 9.53938463759000E-05 
9.70244710467000E-05 9.86829689706000E-05 1.00369816602000E-04 1.02085498539000E-04 
1.03830507665000E-04 1.05605345286000E-04 1.07410521279000E-04 1.09246554237000E-04 
1.11113971616000E-04 1.13013309889000E-04 1.14945114698000E-04 1.16909941015000E-04 
1.18908353295000E-04 1.20940925645000E-04 1.23008241982000E-04 1.25110896207000E-04 
1.27249492371000E-04 1.29424644852000E-04 1.31636978529000E-04 1.33887128962000E-04 
1.36175742577000E-04 1.38503476848000E-04 1.40871000487000E-04 1.43278993639000E-04 
1.45728148073000E-04 1.48219167385000E-04 1.50752767194000E-04 1.53329675357000E-04 
1.55950632168000E-04 1.58616390578000E-04 1.61327716408000E-04 1.64085388569000E-04 
1.66890199287000E-04 1.69742954329000E-04 1.72644473238000E-04 1.75595589563000E-04 
1.78597151103000E-04 1.81650020148000E-04 1.84755073730000E-04 1.87913203868000E-04 
1.91125317834000E-04 1.94392338406000E-04 1.97715204134000E-04 2.01094869615000E-04 
2.04532305760000E-04 2.08028500079000E-04 2.11584456960000E-04 2.15201197962000E-04 
2.18879762103000E-04 2.22621206165000E-04 2.26426604991000E-04 2.30297051800000E-04 
2.34233658494000E-04 2.38237555987000E-04 2.42309894519000E-04 2.46451843995000E-04 
2.50664594316000E-04 2.54949355725000E-04 2.59307359150000E-04 2.63739856562000E-04 
2.68248121331000E-04 2.72833448595000E-04 2.77497155628000E-04 2.82240582225000E-04 
2.87065091079000E-04 2.91972068179000E-04 2.96962923205000E-04 3.02039089931000E-04 
3.07202026644000E-04 3.12453216554000E-04 3.17794168227000E-04 3.23226416015000E-04 
3.28751520498000E-04 3.34371068931000E-04 3.40086675701000E-04 3.45899982793000E-04 
3.51812660256000E-04 3.57826406688000E-04 3.63942949723000E-04 3.70164046525000E-04 
3.76491484294000E-04 3.82927080782000E-04 3.89472684810000E-04 3.96130176803000E-04 
4.02901469331000E-04 4.09788507654000E-04 4.16793270286000E-04 4.23917769559000E-04 
4.31164052205000E-04 4.38534199939000E-04 4.46030330062000E-04 4.53654596069000E-04 
4.61409188262000E-04 4.69296334387000E-04 4.77318300267000E-04 4.85477390458000E-04 
4.93775948909000E-04 5.02216359635000E-04 5.10801047403000E-04 5.19532478427000E-04 
5.28413161080000E-04 5.37445646608000E-04 5.46632529870000E-04 5.55976450080000E-04 
5.65480091566000E-04 5.75146184540000E-04 5.84977505883000E-04 5.94976879943000E-04 
6.05147179348000E-04 6.15491325827000E-04 6.26012291054000E-04 6.36713097499000E-04 
6.47596819295000E-04 6.58666583126000E-04 6.69925569121000E-04 6.81377011767000E-04 
6.93024200845000E-04 7.04870482364000E-04 7.16919259533000E-04 7.29173993733000E-04 
7.41638205511000E-04 7.54315475593000E-04 7.67209445916000E-04 7.80323820666000E-04 
7.93662367350000E-04 8.07228917873000E-04 8.21027369645000E-04 8.35061686692000E-04 
8.49335900803000E-04 8.63854112682000E-04 8.78620493132000E-04 8.93639284247000E-04 
9.08914800636000E-04 9.24451430659000E-04 9.40253637690000E-04 9.56325961395000E-04 
9.72673019044000E-04 9.89299506829000E-04 1.00621020122000E-03 1.02340996033000E-03 
1.04090372531000E-03 1.05869652180000E-03 1.07679346131000E-03 1.09519974274000E-03 
1.11392065387000E-03 1.13296157284000E-03 1.15232796975000E-03 1.17202540819000E-03 
1.19205954685000E-03 1.21243614115000E-03 1.23316104489000E-03 1.25424021194000E-03 
1.27567969793000E-03 1.29748566201000E-03 1.31966436861000E-03 1.34222218925000E-03 
1.36516560435000E-03 1.38850120511000E-03 1.41223569540000E-03 1.43637589368000E-03 
1.46092873496000E-03 1.48590127279000E-03 1.51130068130000E-03 1.53713425726000E-03 
1.56340942214000E-03 1.59013372430000E-03 1.61731484110000E-03 1.64496058117000E-03 
1.67307888657000E-03 1.70167783517000E-03 1.73076564287000E-03 1.76035066606000E-03 
1.79044140392000E-03 1.82104650096000E-03 1.85217474942000E-03 1.88383509184000E-03 
1.91603662363000E-03 1.94878859566000E-03 1.98210041695000E-03 2.01598165733000E-03 
2.05044205023000E-03 2.08549149545000E-03 2.12114006203000E-03 2.15739799110000E-03 
2.19427569886000E-03 2.23178377957000E-03 2.26993300858000E-03 2.30873434541000E-03 
2.34819893694000E-03 2.38833812059000E-03 2.42916342757000E-03 2.47068658619000E-03 
2.51291952525000E-03 2.55587437747000E-03 2.59956348294000E-03 2.64399939270000E-03 
2.68919487232000E-03 2.73516290558000E-03 2.78191669822000E-03 2.82946968170000E-03 
2.87783551706000E-03 2.92702809888000E-03 2.97706155923000E-03 3.02795027176000E-03 
3.07970885580000E-03 3.13235218061000E-03 3.18589536958000E-03 3.24035380465000E-03 
3.29574313066000E-03 3.35207925989000E-03 3.40937837663000E-03 3.46765694181000E-03 