<UPF version="2.0.1">
  <PP_INFO>
Generated using Vanderbilt code, version   7  3  6
Author: kfg    Generation date:   23    7 2013
Automatically converted from original format
1        The Pseudo was generated with a Scalar-Relativistic Calculation
1.40000000000E+00    Local Potential cutoff radius
nl pn  l   occ               Rcut            Rcut US             E pseu
4S  4  0  2.00      0.00000000000      1.50000000000     -5.94560180500
4P  4  1  6.00      0.00000000000      1.60000000000     -3.88757761600
4D  4  2  5.00      0.00000000000      1.80000000000     -1.03752711000
5S  5  0  1.00      0.00000000000      1.50000000000     -0.84012380400
5P  5  1  0.00      0.00000000000      1.60000000000     -0.50253148200
</PP_INFO>
  <PP_HEADER element="Tc" pseudo_type="US" relativistic="scalar" is_ultrasoft="T" is_paw="F" is_coulomb="F" has_so="F" has_wfc="F" has_gipaw="F" core_correction="T" functional="PBESOL" z_valence="15.0" total_psenergy="-172.691400924" wfc_cutoff="0.0" rho_cutoff="0.0" l_max="2" mesh_size="965" number_of_wfc="5" number_of_proj="6"/>
  <PP_MESH>
    <PP_R>
0.00000000000000E+00 3.56404408986000E-07 7.18798668220000E-07 1.08728344510000E-06 
1.46196109889000E-06 1.84293570912000E-06 2.23031310451000E-06 2.62420089240000E-06 
3.02470848858000E-06 3.43194714775000E-06 3.84602999437000E-06 4.26707205411000E-06 
4.69519028582000E-06 5.13050361398000E-06 5.57313296175000E-06 6.02320128457000E-06 
6.48083360433000E-06 6.94615704405000E-06 7.41930086323000E-06 7.90039649376000E-06 
8.38957757640000E-06 8.88697999794000E-06 9.39274192891000E-06 9.90700386198000E-06 
1.04299086510000E-05 1.09616015507000E-05 1.15022302569000E-05 1.20519449478000E-05 
1.26108983253000E-05 1.31792456580000E-05 1.37571448238000E-05 1.43447563539000E-05 
1.49422434774000E-05 1.55497721670000E-05 1.61675111845000E-05 1.67956321279000E-05 
1.74343094795000E-05 1.80837206537000E-05 1.87440460466000E-05 1.94154690862000E-05 
2.00981762833000E-05 2.07923572830000E-05 2.14982049180000E-05 2.22159152616000E-05 
2.29456876823000E-05 2.36877248994000E-05 2.44422330391000E-05 2.52094216919000E-05 
2.59895039707000E-05 2.67826965700000E-05 2.75892198262000E-05 2.84092977787000E-05 
2.92431582322000E-05 3.00910328199000E-05 3.09531570682000E-05 3.18297704613000E-05 
3.27211165088000E-05 3.36274428125000E-05 3.45490011354000E-05 3.54860474720000E-05 
3.64388421189000E-05 3.74076497474000E-05 3.83927394770000E-05 3.93943849501000E-05 
4.04128644079000E-05 4.14484607680000E-05 4.25014617026000E-05 4.35721597189000E-05 
4.46608522398000E-05 4.57678416868000E-05 4.68934355643000E-05 4.80379465443000E-05 
4.92016925540000E-05 5.03849968636000E-05 5.15881881764000E-05 5.28116007199000E-05 
5.40555743388000E-05 5.53204545893000E-05 5.66065928353000E-05 5.79143463455000E-05 
5.92440783933000E-05 6.05961583572000E-05 6.19709618236000E-05 6.33688706914000E-05 
6.47902732774000E-05 6.62355644249000E-05 6.77051456129000E-05 6.91994250679000E-05 
7.07188178772000E-05 7.22637461039000E-05 7.38346389049000E-05 7.54319326492000E-05 
7.70560710400000E-05 7.87075052372000E-05 8.03866939830000E-05 8.20941037298000E-05 
8.38302087688000E-05 8.55954913627000E-05 8.73904418791000E-05 8.92155589269000E-05 
9.10713494948000E-05 9.29583290921000E-05 9.48770218920000E-05 9.68279608770000E-05 
9.88116879871000E-05 1.00828754270000E-04 1.02879720036000E-04 1.04965155010000E-04 
1.07085638493000E-04 1.09241759522000E-04 1.11434117034000E-04 1.13663320030000E-04 
1.15929987748000E-04 1.18234749833000E-04 1.20578246511000E-04 1.22961128768000E-04 
1.25384058532000E-04 1.27847708854000E-04 1.30352764097000E-04 1.32899920126000E-04 
1.35489884501000E-04 1.38123376673000E-04 1.40801128184000E-04 1.43523882872000E-04 
1.46292397075000E-04 1.49107439842000E-04 1.51969793148000E-04 1.54880252110000E-04 
1.57839625206000E-04 1.60848734504000E-04 1.63908415887000E-04 1.67019519287000E-04 
1.70182908918000E-04 1.73399463520000E-04 1.76670076602000E-04 1.79995656688000E-04 
1.83377127571000E-04 1.86815428571000E-04 1.90311514794000E-04 1.93866357397000E-04 
1.97480943859000E-04 2.01156278256000E-04 2.04893381536000E-04 2.08693291809000E-04 
2.12557064630000E-04 2.16485773293000E-04 2.20480509132000E-04 2.24542381821000E-04 
2.28672519684000E-04 2.32872070010000E-04 2.37142199365000E-04 2.41484093925000E-04 
2.45898959799000E-04 2.50388023368000E-04 2.54952531623000E-04 2.59593752511000E-04 
2.64312975291000E-04 2.69111510888000E-04 2.73990692260000E-04 2.78951874766000E-04 
2.83996436544000E-04 2.89125778894000E-04 2.94341326666000E-04 2.99644528657000E-04 
3.05036858014000E-04 3.10519812638000E-04 3.16094915610000E-04 3.21763715604000E-04 
3.27527787324000E-04 3.33388731937000E-04 3.39348177522000E-04 3.45407779519000E-04 
3.51569221188000E-04 3.57834214082000E-04 3.64204498516000E-04 3.70681844056000E-04 
3.77268050004000E-04 3.83964945906000E-04 3.90774392052000E-04 3.97698280000000E-04 
4.04738533097000E-04 4.11897107013000E-04 4.19175990288000E-04 4.26577204880000E-04 
4.34102806729000E-04 4.41754886330000E-04 4.49535569308000E-04 4.57447017015000E-04 
4.65491427126000E-04 4.73671034252000E-04 4.81988110557000E-04 4.90444966394000E-04 
4.99043950944000E-04 5.07787452870000E-04 5.16677900978000E-04 5.25717764894000E-04 
5.34909555750000E-04 5.44255826880000E-04 5.53759174530000E-04 5.63422238580000E-04 
5.73247703278000E-04 5.83238297981000E-04 5.93396797920000E-04 6.03726024965000E-04 
6.14228848413000E-04 6.24908185781000E-04 6.35767003621000E-04 6.46808318342000E-04 
6.58035197045000E-04 6.69450758381000E-04 6.81058173413000E-04 6.92860666497000E-04 
7.04861516179000E-04 7.17064056105000E-04 7.29471675949000E-04 7.42087822351000E-04 
7.54915999878000E-04 7.67959771995000E-04 7.81222762056000E-04 7.94708654309000E-04 
8.08421194923000E-04 8.22364193025000E-04 8.36541521760000E-04 8.50957119366000E-04 
8.65614990267000E-04 8.80519206190000E-04 8.95673907290000E-04 9.11083303303000E-04 
9.26751674717000E-04 9.42683373957000E-04 9.58882826598000E-04 9.75354532593000E-04 
9.92103067520000E-04 1.00913308386000E-03 1.02644931228000E-03 1.04405656296000E-03 
1.06195972690000E-03 1.08016377734000E-03 1.09867377106000E-03 1.11749484985000E-03 
1.13663224191000E-03 1.15609126331000E-03 1.17587731945000E-03 1.19599590658000E-03 
1.21645261333000E-03 1.23725312226000E-03 1.25840321142000E-03 1.27990875595000E-03 
1.30177572978000E-03 1.32401020719000E-03 1.34661836458000E-03 1.36960648213000E-03 
1.39298094557000E-03 1.41674824798000E-03 1.44091499151000E-03 1.46548788933000E-03 
1.49047376738000E-03 1.51587956636000E-03 1.54171234359000E-03 1.56797927500000E-03 
1.59468765715000E-03 1.62184490918000E-03 1.64945857497000E-03 1.67753632515000E-03 
1.70608595927000E-03 1.73511540798000E-03 1.76463273520000E-03 1.79464614036000E-03 
1.82516396073000E-03 1.85619467368000E-03 1.88774689903000E-03 1.91982940151000E-03 
1.95245109313000E-03 1.98562103567000E-03 2.01934844323000E-03 2.05364268474000E-03 
2.08851328660000E-03 2.12396993532000E-03 2.16002248019000E-03 2.19668093605000E-03 
2.23395548602000E-03 2.27185648440000E-03 2.31039445947000E-03 2.34958011649000E-03 
2.38942434060000E-03 2.42993819991000E-03 2.47113294853000E-03 2.51302002970000E-03 
2.55561107899000E-03 2.59891792754000E-03 2.64295260528000E-03 2.68772734437000E-03 
2.73325458252000E-03 2.77954696647000E-03 2.82661735552000E-03 2.87447882508000E-03 
2.92314467031000E-03 2.97262840982000E-03 3.02294378940000E-03 3.07410478587000E-03 
3.12612561095000E-03 3.17902071521000E-03 3.23280479206000E-03 3.28749278188000E-03 
3.34309987613000E-03 3.39964152157000E-03 3.45713342458000E-03 3.51559155552000E-03 
3.57503215311000E-03 3.63547172902000E-03 3.69692707242000E-03 3.75941525462000E-03 
3.82295363386000E-03 3.88755986009000E-03 3.95325187991000E-03 4.02004794151000E-03 
4.08796659979000E-03 4.15702672148000E-03 4.22724749040000E-03 4.29864841276000E-03 
4.37124932260000E-03 4.44507038733000E-03 4.52013211326000E-03 4.59645535135000E-03 
4.67406130300000E-03 4.75297152592000E-03 4.83320794011000E-03 4.91479283398000E-03 
4.99774887054000E-03 5.08209909365000E-03 5.16786693449000E-03 5.25507621799000E-03 
5.34375116952000E-03 5.43391642159000E-03 5.52559702067000E-03 5.61881843419000E-03 
5.71360655758000E-03 5.80998772150000E-03 5.90798869909000E-03 6.00763671350000E-03 
6.10895944535000E-03 6.21198504052000E-03 6.31674211787000E-03 6.42325977728000E-03 
6.53156760766000E-03 6.64169569522000E-03 6.75367463181000E-03 6.86753552340000E-03 
6.98330999876000E-03 7.10103021820000E-03 7.22072888254000E-03 7.34243924217000E-03 
7.46619510633000E-03 7.59203085242000E-03 7.71998143564000E-03 7.85008239863000E-03 
7.98236988139000E-03 8.11688063129000E-03 8.25365201330000E-03 8.39272202034000E-03 
8.53412928386000E-03 8.67791308457000E-03 8.82411336334000E-03 8.97277073230000E-03 
9.12392648612000E-03 9.27762261347000E-03 9.43390180872000E-03 9.59280748376000E-03 
9.75438378007000E-03 9.91867558100000E-03 1.00857285242000E-02 1.02555890144000E-02 
1.04283042361000E-02 1.06039221669000E-02 1.07824915906000E-02 1.09640621111000E-02 
1.11486841657000E-02 1.13364090395000E-02 1.15272888797000E-02 1.17213767094000E-02 
1.19187264434000E-02 1.21193929022000E-02 1.23234318278000E-02 1.25308998990000E-02 
1.27418547472000E-02 1.29563549722000E-02 1.31744601589000E-02 1.33962308934000E-02 
1.36217287801000E-02 1.38510164588000E-02 1.40841576220000E-02 1.43212170326000E-02 
1.45622605420000E-02 1.48073551083000E-02 1.50565688148000E-02 1.53099708892000E-02 
1.55676317226000E-02 1.58296228890000E-02 1.60960171656000E-02 1.63668885524000E-02 
1.66423122932000E-02 1.69223648964000E-02 1.72071241562000E-02 1.74966691742000E-02 
1.77910803814000E-02 1.80904395606000E-02 1.83948298691000E-02 1.87043358617000E-02 
1.90190435142000E-02 1.93390402476000E-02 1.96644149517000E-02 1.99952580107000E-02 
2.03316613274000E-02 2.06737183494000E-02 2.10215240947000E-02 2.13751751782000E-02 
2.17347698387000E-02 2.21004079659000E-02 2.24721911283000E-02 2.28502226013000E-02 
2.32346073961000E-02 2.36254522889000E-02 2.40228658500000E-02 2.44269584747000E-02 
2.48378424135000E-02 2.52556318036000E-02 2.56804427002000E-02 2.61123931091000E-02 
2.65516030193000E-02 2.69981944363000E-02 2.74522914163000E-02 2.79140201001000E-02 
2.83835087487000E-02 2.88608877787000E-02 2.93462897983000E-02 2.98398496447000E-02 
3.03417044209000E-02 3.08519935343000E-02 3.13708587351000E-02 3.18984441559000E-02 
3.24348963516000E-02 3.29803643402000E-02 3.35349996439000E-02 3.40989563319000E-02 
3.46723910622000E-02 3.52554631261000E-02 3.58483344917000E-02 3.64511698494000E-02 
3.70641366573000E-02 3.76874051878000E-02 3.83211485752000E-02 3.89655428634000E-02 
3.96207670548000E-02 4.02870031605000E-02 4.09644362503000E-02 4.16532545044000E-02 
4.23536492657000E-02 4.30658150927000E-02 4.37899498139000E-02 4.45262545825000E-02 
4.52749339323000E-02 4.60361958346000E-02 4.68102517559000E-02 4.75973167168000E-02 
4.83976093515000E-02 4.92113519685000E-02 5.00387706129000E-02 5.08800951283000E-02 
5.17355592216000E-02 5.26054005270000E-02 5.34898606727000E-02 5.43891853479000E-02 
5.53036243707000E-02 5.62334317579000E-02 5.71788657951000E-02 5.81401891092000E-02 
5.91176687405000E-02 6.01115762174000E-02 6.11221876318000E-02 6.21497837155000E-02 
6.31946499185000E-02 6.42570764880000E-02 6.53373585496000E-02 6.64357961883000E-02 
6.75526945329000E-02 6.86883638402000E-02 6.98431195810000E-02 7.10172825282000E-02 
7.22111788460000E-02 7.34251401796000E-02 7.46595037486000E-02 7.59146124394000E-02 
7.71908149017000E-02 7.84884656441000E-02 7.98079251336000E-02 8.11495598953000E-02 
8.25137426140000E-02 8.39008522382000E-02 8.53112740850000E-02 8.67453999473000E-02 
8.82036282027000E-02 8.96863639240000E-02 9.11940189916000E-02 9.27270122085000E-02 
9.42857694158000E-02 9.58707236117000E-02 9.74823150715000E-02 9.91209914698000E-02 
1.00787208005000E-01 1.02481427526000E-01 1.04204120660000E-01 1.05955765944000E-01 
1.07736849957000E-01 1.09547867456000E-01 1.11389321514000E-01 1.13261723658000E-01 
1.15165594010000E-01 1.17101461436000E-01 1.19069863690000E-01 1.21071347563000E-01 
1.23106469035000E-01 1.25175793431000E-01 1.27279895576000E-01 1.29419359957000E-01 
1.31594780883000E-01 1.33806762652000E-01 1.36055919718000E-01 1.38342876860000E-01 
1.40668269359000E-01 1.43032743173000E-01 1.45436955116000E-01 1.47881573038000E-01 
1.50367276017000E-01 1.52894754541000E-01 1.55464710705000E-01 1.58077858401000E-01 
1.60734923520000E-01 1.63436644154000E-01 1.66183770797000E-01 1.68977066559000E-01 
1.71817307371000E-01 1.74705282209000E-01 1.77641793307000E-01 1.80627656380000E-01 
1.83663700854000E-01 1.86750770095000E-01 1.89889721642000E-01 1.93081427445000E-01 
1.96326774111000E-01 1.99626663144000E-01 2.02982011204000E-01 2.06393750351000E-01 
2.09862828313000E-01 2.13390208746000E-01 2.16976871500000E-01 2.20623812893000E-01 
2.24332045988000E-01 2.28102600873000E-01 2.31936524950000E-01 2.35834883221000E-01 
2.39798758590000E-01 2.43829252157000E-01 2.47927483531000E-01 2.52094591136000E-01 
2.56331732527000E-01 2.60640084717000E-01 2.65020844497000E-01 2.69475228773000E-01 
2.74004474904000E-01 2.78609841040000E-01 2.83292606482000E-01 2.88054072027000E-01 
2.92895560335000E-01 2.97818416295000E-01 3.02824007399000E-01 3.07913724121000E-01 
3.13088980303000E-01 3.18351213551000E-01 3.23701885629000E-01 3.29142482870000E-01 
3.34674516586000E-01 3.40299523488000E-01 3.46019066114000E-01 3.51834733264000E-01 
3.57748140437000E-01 3.63760930284000E-01 3.69874773065000E-01 3.76091367107000E-01 
3.82412439282000E-01 3.88839745485000E-01 3.95375071119000E-01 4.02020231595000E-01 
4.08777072834000E-01 4.15647471779000E-01 4.22633336918000E-01 4.29736608815000E-01 
4.36959260646000E-01 4.44303298750000E-01 4.51770763185000E-01 4.59363728295000E-01 
4.67084303284000E-01 4.74934632808000E-01 4.82916897563000E-01 4.91033314897000E-01 
4.99286139422000E-01 5.07677663643000E-01 5.16210218592000E-01 5.24886174479000E-01 
5.33707941347000E-01 5.42677969744000E-01 5.51798751401000E-01 5.61072819928000E-01 
5.70502751515000E-01 5.80091165648000E-01 5.89840725836000E-01 5.99754140354000E-01 
6.09834162992000E-01 6.20083593820000E-01 6.30505279970000E-01 6.41102116419000E-01 
6.51877046804000E-01 6.62833064228000E-01 6.73973212101000E-01 6.85300584979000E-01 
6.96818329429000E-01 7.08529644897000E-01 7.20437784602000E-01 7.32546056437000E-01 
7.44857823889000E-01 7.57376506972000E-01 7.70105583180000E-01 7.83048588447000E-01 
7.96209118138000E-01 8.09590828038000E-01 8.23197435376000E-01 8.37032719853000E-01 
8.51100524691000E-01 8.65404757705000E-01 8.79949392386000E-01 8.94738469002000E-01 
9.09776095725000E-01 9.25066449772000E-01 9.40613778561000E-01 9.56422400893000E-01 
9.72496708156000E-01 9.88841165537000E-01 1.00546031327000E+00 1.02235876789000E+00 
1.03954122352000E+00 1.05701245318000E+00 1.07477731009000E+00 1.09284072906000E+00 
1.11120772782000E+00 1.12988340842000E+00 1.14887295869000E+00 1.16818165361000E+00 
1.18781485683000E+00 1.20777802216000E+00 1.22807669504000E+00 1.24871651412000E+00 
1.26970321282000E+00 1.29104262091000E+00 1.31274066614000E+00 1.33480337589000E+00 
1.35723687884000E+00 1.38004740664000E+00 1.40324129571000E+00 1.42682498894000E+00 
1.45080503751000E+00 1.47518810270000E+00 1.49998095774000E+00 1.52519048969000E+00 
1.55082370137000E+00 1.57688771327000E+00 1.60338976557000E+00 1.63033722011000E+00 
1.65773756248000E+00 1.68559840405000E+00 1.71392748413000E+00 1.74273267209000E+00 
1.77202196956000E+00 1.80180351263000E+00 1.83208557416000E+00 1.86287656602000E+00 
1.89418504147000E+00 1.92601969749000E+00 1.95838937726000E+00 1.99130307256000E+00 
2.02476992630000E+00 2.05879923505000E+00 2.09340045159000E+00 2.12858318762000E+00 
2.16435721633000E+00 2.20073247519000E+00 2.23771906866000E+00 2.27532727104000E+00 
2.31356752930000E+00 2.35245046597000E+00 2.39198688213000E+00 2.43218776035000E+00 
2.47306426782000E+00 2.51462775937000E+00 2.55688978070000E+00 2.59986207152000E+00 
2.64355656886000E+00 2.68798541035000E+00 2.73316093764000E+00 2.77909569976000E+00 
2.82580245667000E+00 2.87329418277000E+00 2.92158407050000E+00 2.97068553405000E+00 
3.02061221301000E+00 3.07137797624000E+00 3.12299692565000E+00 3.17548340018000E+00 
3.22885197975000E+00 3.28311748929000E+00 3.33829500292000E+00 3.39439984807000E+00 
3.45144760978000E+00 3.50945413503000E+00 3.56843553710000E+00 3.62840820010000E+00 
3.68938878349000E+00 3.75139422672000E+00 3.81444175391000E+00 3.87854887867000E+00 
3.94373340894000E+00 4.01001345197000E+00 4.07740741931000E+00 4.14593403192000E+00 
4.21561232542000E+00 4.28646165535000E+00 4.35850170252000E+00 4.43175247853000E+00 
4.50623433128000E+00 4.58196795065000E+00 4.65897437425000E+00 4.73727499325000E+00 
4.81689155832000E+00 4.89784618569000E+00 4.98016136327000E+00 5.06385995693000E+00 
5.14896521680000E+00 5.23550078378000E+00 5.32349069610000E+00 5.41295939595000E+00 
5.50393173633000E+00 5.59643298792000E+00 5.69048884610000E+00 5.78612543811000E+00 
5.88336933028000E+00 5.98224753544000E+00 6.08278752037000E+00 6.18501721352000E+00 
6.28896501266000E+00 6.39465979285000E+00 6.50213091444000E+00 6.61140823121000E+00 
6.72252209866000E+00 6.83550338249000E+00 6.95038346710000E+00 7.06719426436000E+00 
7.18596822247000E+00 7.30673833497000E+00 7.42953814988000E+00 7.55440177905000E+00 
7.68136390762000E+00 7.81045980367000E+00 7.94172532801000E+00 8.07519694411000E+00 
8.21091172829000E+00 8.34890737997000E+00 8.48922223217000E+00 8.63189526213000E+00 
8.77696610217000E+00 8.92447505068000E+00 9.07446308331000E+00 9.22697186437000E+00 
9.38204375839000E+00 9.53972184190000E+00 9.70004991537000E+00 9.86307251541000E+00 
1.00288349271000E+01 1.01973831967000E+01 1.03687641442000E+01 1.05430253765000E+01 
1.07202153007000E+01 1.09003831372000E+01 1.10835789340000E+01 1.12698535798000E+01 
1.14592588189000E+01 1.16518472650000E+01 1.18476724161000E+01 1.20467886695000E+01 
1.22492513363000E+01 1.24551166577000E+01 1.26644418196000E+01 1.28772849694000E+01 
1.30937052315000E+01 1.33137627240000E+01 1.35375185754000E+01 1.37650349416000E+01 
1.39963750230000E+01 1.42316030823000E+01 1.44707844620000E+01 1.47139856030000E+01 
1.49612740628000E+01 1.52127185341000E+01 1.54683888642000E+01 1.57283560744000E+01 
1.59926923795000E+01 1.62614712078000E+01 1.65347672219000E+01 1.68126563390000E+01 
1.70952157526000E+01 1.73825239529000E+01 1.76746607498000E+01 1.79717072943000E+01 
1.82737461011000E+01 1.85808610718000E+01 1.88931375183000E+01 1.92106621858000E+01 
1.95335232779000E+01 1.98618104801000E+01 2.01956149855000E+01 2.05350295197000E+01 
2.08801483667000E+01 2.12310673951000E+01 2.15878840846000E+01 2.19506975532000E+01 
2.23196085849000E+01 2.26947196573000E+01 2.30761349703000E+01 2.34639604751000E+01 
2.38583039034000E+01 2.42592747976000E+01 2.46669845412000E+01 2.50815463895000E+01 
2.55030755011000E+01 2.59316889702000E+01 2.63675058589000E+01 2.68106472303000E+01 
2.72612361819000E+01 2.77193978803000E+01 2.81852595956000E+01 2.86589507368000E+01 
2.91406028878000E+01 2.96303498440000E+01 3.01283276493000E+01 3.06346746342000E+01 
3.11495314538000E+01 3.16730411272000E+01 3.22053490771000E+01 3.27466031703000E+01 
3.32969537586000E+01 3.38565537207000E+01 3.44255585047000E+01 3.50041261711000E+01 
3.55924174368000E+01 3.61905957199000E+01 3.67988271848000E+01 3.74172807887000E+01 
3.80461283282000E+01 3.86855444872000E+01 3.93357068855000E+01 3.99967961278000E+01 
4.06689958543000E+01 4.13524927915000E+01 4.20474768040000E+01 4.27541409475000E+01 
4.34726815221000E+01 4.42032981269000E+01 4.49461937158000E+01 4.57015746534000E+01 
4.64696507726000E+01 4.72506354328000E+01 4.80447455793000E+01 4.88522018032000E+01 
4.96732284032000E+01 5.05080534475000E+01 5.13569088373000E+01 5.22200303713000E+01 
5.30976578109000E+01 5.39900349472000E+01 5.48974096685000E+01 5.58200340291000E+01 
5.67581643196000E+01 5.77120611377000E+01 5.86819894608000E+01 5.96682187198000E+01 
6.06710228736000E+01 6.16906804853000E+01 6.27274747997000E+01 6.37816938219000E+01 
6.48536303972000E+01 6.59435822928000E+01 6.70518522801000E+01 6.81787482190000E+01 
6.93245831433000E+01 7.04896753478000E+01 7.16743484770000E+01 7.28789316141000E+01 
7.41037593734000E+01 7.53491719927000E+01 7.66155154280000E+01 7.79031414494000E+01 
7.92124077391000E+01 8.05436779906000E+01 8.18973220099000E+01 8.32737158177000E+01 
8.46732417547000E+01 8.60962885869000E+01 8.75432516143000E+01 8.90145327804000E+01 
9.05105407839000E+01 9.20316911922000E+01 9.35784065568000E+01 9.51511165308000E+01 
9.67502579882000E+01 9.83762751453000E+01 1.00029619684000E+02 1.01710750877000E+02 
1.03420135717000E+02 1.05158249043000E+02 1.06925573675000E+02 1.08722600550000E+02 
1.10549828851000E+02 1.12407766155000E+02 1.14296928568000E+02 1.16217840868000E+02 
1.18171036655000E+02 1.20157058495000E+02 1.22176458075000E+02 1.24229796351000E+02 
1.26317643709000E+02 1.28440580119000E+02 1.30599195300000E+02 1.32794088881000E+02 
1.35025870568000E+02 1.37295160316000E+02 1.39602588497000E+02 1.41948796079000E+02 
1.44334434800000E+02 1.46760167354000E+02 1.49226667570000E+02 1.51734620604000E+02 
1.54284723125000E+02 1.56877683512000E+02 1.59514222048000E+02 1.62195071121000E+02 
1.64920975430000E+02 1.67692692187000E+02 1.70510991332000E+02 1.73376655743000E+02 
1.76290481457000E+02 1.79253277889000E+02 1.82265868056000E+02 1.85329088810000E+02 
1.88443791063000E+02 1.91610840031000E+02 1.94831115470000E+02 1.98105511923000E+02 
2.01434938964000E+02 
</PP_R>
    <PP_RAB>
3.53442622308000E-07 3.59382695791000E-07 3.65422600112000E-07 3.71564013060000E-07 
3.77808640623000E-07 3.84158217460000E-07 3.90614507383000E-07 3.97179303848000E-07 
4.03854430451000E-07 4.10641741437000E-07 4.17543122214000E-07 4.24560489876000E-07 
4.31695793738000E-07 4.38951015874000E-07 4.46328171670000E-07 4.53829310384000E-07 
4.61456515713000E-07 4.69211906375000E-07 4.77097636695000E-07 4.85115897204000E-07 
4.93268915248000E-07 5.01558955607000E-07 5.09988321123000E-07 5.18559353341000E-07 
5.27274433158000E-07 5.36135981486000E-07 5.45146459923000E-07 5.54308371437000E-07 
5.63624261063000E-07 5.73096716609000E-07 5.82728369371000E-07 5.92521894872000E-07 
6.02480013599000E-07 6.12605491758000E-07 6.22901142049000E-07 6.33369824440000E-07 
6.44014446967000E-07 6.54837966536000E-07 6.65843389751000E-07 6.77033773745000E-07 
6.88412227029000E-07 6.99981910358000E-07 7.11746037608000E-07 7.23707876667000E-07 
7.35870750346000E-07 7.48238037298000E-07 7.60813172960000E-07 7.73599650507000E-07 
7.86601021820000E-07 7.99820898475000E-07 8.13262952745000E-07 8.26930918619000E-07 
8.40828592844000E-07 8.54959835974000E-07 8.69328573444000E-07 8.83938796664000E-07 
8.98794564122000E-07 9.13900002516000E-07 9.29259307898000E-07 9.44876746841000E-07 
9.60756657623000E-07 9.76903451431000E-07 9.93321613592000E-07 1.01001570481000E-06 
1.02699036244000E-06 1.04425030177000E-06 1.06180031735000E-06 1.07964528429000E-06 
1.09779015964000E-06 1.11623998376000E-06 1.13499988171000E-06 1.15407506471000E-06 
1.17347083154000E-06 1.19319257003000E-06 1.21324575858000E-06 1.23363596764000E-06 
1.25436886129000E-06 1.27545019880000E-06 1.29688583623000E-06 1.31868172807000E-06 
1.34084392886000E-06 1.36337859493000E-06 1.38629198604000E-06 1.40959046716000E-06 
1.43328051026000E-06 1.45736869606000E-06 1.48186171586000E-06 1.50676637344000E-06 
1.53208958693000E-06 1.55783839071000E-06 1.58401993739000E-06 1.61064149980000E-06 
1.63771047297000E-06 1.66523437626000E-06 1.69322085536000E-06 1.72167768447000E-06 
1.75061276845000E-06 1.78003414502000E-06 1.80994998696000E-06 1.84036860442000E-06 
1.87129844722000E-06 1.90274810718000E-06 1.93472632051000E-06 1.96724197026000E-06 
2.00030408876000E-06 2.03392186015000E-06 2.06810462291000E-06 2.10286187248000E-06 
2.13820326386000E-06 2.17413861435000E-06 2.21067790620000E-06 2.24783128947000E-06 
2.28560908478000E-06 2.32402178619000E-06 2.36308006415000E-06 2.40279476844000E-06 
2.44317693117000E-06 2.48423776987000E-06 2.52598869059000E-06 2.56844129107000E-06 
2.61160736399000E-06 2.65549890018000E-06 2.70012809204000E-06 2.74550733684000E-06 
2.79164924022000E-06 2.83856661968000E-06 2.88627250811000E-06 2.93478015747000E-06 
2.98410304240000E-06 3.03425486404000E-06 3.08524955376000E-06 3.13710127709000E-06 
3.18982443760000E-06 3.24343368098000E-06 3.29794389901000E-06 3.35337023377000E-06 
3.40972808182000E-06 3.46703309849000E-06 3.52530120221000E-06 3.58454857892000E-06 
3.64479168663000E-06 3.70604725990000E-06 3.76833231458000E-06 3.83166415246000E-06 
3.89606036614000E-06 3.96153884386000E-06 4.02811777450000E-06 4.09581565266000E-06 
4.16465128372000E-06 4.23464378913000E-06 4.30581261172000E-06 4.37817752106000E-06 
4.45175861896000E-06 4.52657634511000E-06 4.60265148269000E-06 4.68000516416000E-06 
4.75865887716000E-06 4.83863447044000E-06 4.91995415997000E-06 5.00264053507000E-06 
5.08671656471000E-06 5.17220560387000E-06 5.25913140008000E-06 5.34751809993000E-06 
5.43739025587000E-06 5.52877283295000E-06 5.62169121581000E-06 5.71617121571000E-06 
5.81223907770000E-06 5.90992148793000E-06 6.00924558101000E-06 6.11023894762000E-06 
6.21292964211000E-06 6.31734619034000E-06 6.42351759758000E-06 6.53147335657000E-06 
6.64124345571000E-06 6.75285838740000E-06 6.86634915651000E-06 6.98174728898000E-06 
7.09908484059000E-06 7.21839440587000E-06 7.33970912711000E-06 7.46306270364000E-06 
7.58848940113000E-06 7.71602406114000E-06 7.84570211078000E-06 7.97755957256000E-06 
8.11163307442000E-06 8.24795985984000E-06 8.38657779825000E-06 8.52752539554000E-06 
8.67084180472000E-06 8.81656683681000E-06 8.96474097194000E-06 9.11540537055000E-06 
9.26860188481000E-06 9.42437307030000E-06 9.58276219781000E-06 9.74381326532000E-06 
9.90757101027000E-06 1.00740809220000E-05 1.02433892543000E-05 1.04155430384000E-05 
1.05905900958000E-05 1.07685790520000E-05 1.09495593493000E-05 1.11335812613000E-05 
1.13206959064000E-05 1.15109552620000E-05 1.17044121792000E-05 1.19011203973000E-05 
1.21011345586000E-05 1.23045102241000E-05 1.25113038881000E-05 1.27215729948000E-05 
1.29353759536000E-05 1.31527721556000E-05 1.33738219899000E-05 1.35985868608000E-05 
1.38271292044000E-05 1.40595125061000E-05 1.42958013183000E-05 1.45360612784000E-05 
1.47803591268000E-05 1.50287627255000E-05 1.52813410771000E-05 1.55381643440000E-05 
1.57993038676000E-05 1.60648321883000E-05 1.63348230656000E-05 1.66093514989000E-05 
1.68884937476000E-05 1.71723273533000E-05 1.74609311603000E-05 1.77543853382000E-05 
1.80527714040000E-05 1.83561722446000E-05 1.86646721400000E-05 1.89783567865000E-05 
1.92973133209000E-05 1.96216303441000E-05 1.99513979464000E-05 2.02867077320000E-05 
2.06276528445000E-05 2.09743279933000E-05 2.13268294792000E-05 2.16852552215000E-05 
2.20497047853000E-05 2.24202794089000E-05 2.27970820319000E-05 2.31802173244000E-05 
2.35697917152000E-05 2.39659134219000E-05 2.43686924809000E-05 2.47782407778000E-05 
2.51946720787000E-05 2.56181020616000E-05 2.60486483487000E-05 2.64864305390000E-05 
2.69315702414000E-05 2.73841911087000E-05 2.78444188718000E-05 2.83123813748000E-05 
2.87882086102000E-05 2.92720327553000E-05 2.97639882089000E-05 3.02642116284000E-05 
3.07728419679000E-05 3.12900205169000E-05 3.18158909395000E-05 3.23505993142000E-05 
3.28942941744000E-05 3.34471265501000E-05 3.40092500094000E-05 3.45808207013000E-05 
3.51619973990000E-05 3.57529415443000E-05 3.63538172922000E-05 3.69647915564000E-05 
3.75860340560000E-05 3.82177173622000E-05 3.88600169468000E-05 3.95131112304000E-05 
4.01771816324000E-05 4.08524126209000E-05 4.15389917645000E-05 4.22371097840000E-05 
4.29469606056000E-05 4.36687414146000E-05 4.44026527103000E-05 4.51488983618000E-05 
4.59076856643000E-05 4.66792253968000E-05 4.74637318810000E-05 4.82614230404000E-05 
4.90725204609000E-05 4.98972494526000E-05 5.07358391123000E-05 5.15885223868000E-05 
5.24555361382000E-05 5.33371212091000E-05 5.42335224900000E-05 5.51449889870000E-05 
5.60717738911000E-05 5.70141346484000E-05 5.79723330320000E-05 5.89466352142000E-05 
5.99373118408000E-05 6.09446381061000E-05 6.19688938293000E-05 6.30103635327000E-05 
6.40693365200000E-05 6.51461069572000E-05 6.62409739541000E-05 6.73542416475000E-05 
6.84862192855000E-05 6.96372213137000E-05 7.08075674623000E-05 7.19975828349000E-05 
7.32075979991000E-05 7.44379490778000E-05 7.56889778433000E-05 7.69610318115000E-05 
7.82544643390000E-05 7.95696347209000E-05 8.09069082907000E-05 8.22666565220000E-05 
8.36492571313000E-05 8.50550941832000E-05 8.64845581971000E-05 8.79380462554000E-05 
8.94159621143000E-05 9.09187163154000E-05 9.24467263001000E-05 9.40004165254000E-05 
9.55802185820000E-05 9.71865713139000E-05 9.88199209405000E-05 1.00480721181000E-04 
1.02169433378000E-04 1.03886526631000E-04 1.05632477920000E-04 1.07407772244000E-04 
1.09212902750000E-04 1.11048370876000E-04 1.12914686486000E-04 1.14812368012000E-04 
1.16741942602000E-04 1.18703946259000E-04 1.20698923998000E-04 1.22727429992000E-04 
1.24790027728000E-04 1.26887290163000E-04 1.29019799883000E-04 1.31188149266000E-04 
1.33392940646000E-04 1.35634786477000E-04 1.37914309511000E-04 1.40232142961000E-04 
1.42588930687000E-04 1.44985327365000E-04 1.47421998678000E-04 1.49899621494000E-04 
1.52418884058000E-04 1.54980486180000E-04 1.57585139434000E-04 1.60233567352000E-04 
1.62926505624000E-04 1.65664702306000E-04 1.68448918026000E-04 1.71279926196000E-04 
1.74158513224000E-04 1.77085478737000E-04 1.80061635799000E-04 1.83087811140000E-04 
1.86164845384000E-04 1.89293593281000E-04 1.92474923950000E-04 1.95709721113000E-04 
1.98998883346000E-04 2.02343324326000E-04 2.05743973086000E-04 2.09201774273000E-04 
2.12717688409000E-04 2.16292692159000E-04 2.19927778603000E-04 2.23623957512000E-04 
2.27382255624000E-04 2.31203716936000E-04 2.35089402989000E-04 2.39040393166000E-04 