<UPF version="2.0.1">
  <PP_INFO>
Generated using Vanderbilt code, version   7  3  6
Author: kfg        Generation date:   22    9   15
Automatically converted from original format
1        The Pseudo was generated with a Scalar-Relativistic Calculation
1.80000000000E+00    Local Potential cutoff radius
nl pn  l   occ               Rcut            Rcut US             E pseu
3S  3  0  2.00      0.00000000000      1.50000000000     -5.14732153200
3P  3  1  6.00      0.00000000000      1.60000000000     -3.23005961800
4S  4  0  2.00      0.00000000000      1.50000000000     -0.34661471500
3D  3  2  3.00      0.00000000000      1.70000000000     -0.38102767400
</PP_INFO>
  <PP_HEADER element="V" pseudo_type="US" relativistic="scalar" is_ultrasoft="T" is_paw="F" is_coulomb="F" has_so="F" has_wfc="F" has_gipaw="F" core_correction="T" functional="PBESOL" z_valence="13.0" total_psenergy="-144.317248604" wfc_cutoff="0.0" rho_cutoff="0.0" l_max="2" mesh_size="853" number_of_wfc="4" number_of_proj="6"/>
  <PP_MESH>
    <PP_R>
0.00000000000000E+00 1.84220909043000E-06 3.71590817425000E-06 5.62163552895000E-06 
7.55993863312000E-06 9.53137432374000E-06 1.15365089561000E-05 1.35759185666000E-05 
1.56501890382000E-05 1.77599162687000E-05 1.99057063417000E-05 2.20881757014000E-05 
2.43079513289000E-05 2.65656709228000E-05 2.88619830822000E-05 3.11975474933000E-05 
3.35730351184000E-05 3.59891283892000E-05 3.84465214025000E-05 4.09459201198000E-05 
4.34880425700000E-05 4.60736190557000E-05 4.87033923629000E-05 5.13781179747000E-05 
5.40985642879000E-05 5.68655128342000E-05 5.96797585042000E-05 6.25421097764000E-05 
6.54533889488000E-05 6.84144323757000E-05 7.14260907075000E-05 7.44892291353000E-05 
7.76047276397000E-05 8.07734812429000E-05 8.39964002666000E-05 8.72744105931000E-05 
9.06084539313000E-05 9.39994880873000E-05 9.74484872396000E-05 1.00956442219000E-04 
1.04524360793000E-04 1.08153267955000E-04 1.11844206221000E-04 1.15598235926000E-04 
1.19416435529000E-04 1.23299901926000E-04 1.27249750761000E-04 1.31267116749000E-04 
1.35353154002000E-04 1.39509036359000E-04 1.43735957726000E-04 1.48035132413000E-04 
1.52407795493000E-04 1.56855203145000E-04 1.61378633024000E-04 1.65979384623000E-04 
1.70658779651000E-04 1.75418162406000E-04 1.80258900166000E-04 1.85182383583000E-04 
1.90190027078000E-04 1.95283269250000E-04 2.00463573288000E-04 2.05732427394000E-04 
2.11091345208000E-04 2.16541866243000E-04 2.22085556328000E-04 2.27724008058000E-04 
2.33458841252000E-04 2.39291703415000E-04 2.45224270216000E-04 2.51258245968000E-04 
2.57395364114000E-04 2.63637387729000E-04 2.69986110027000E-04 2.76443354872000E-04 
2.83010977306000E-04 2.89690864079000E-04 2.96484934195000E-04 3.03395139457000E-04 
3.10423465034000E-04 3.17571930028000E-04 3.24842588054000E-04 3.32237527833000E-04 
3.39758873787000E-04 3.47408786652000E-04 3.55189464102000E-04 3.63103141374000E-04 
3.71152091915000E-04 3.79338628031000E-04 3.87665101558000E-04 3.96133904529000E-04 
4.04747469867000E-04 4.13508272084000E-04 4.22418827988000E-04 4.31481697410000E-04 
4.40699483935000E-04 4.50074835658000E-04 4.59610445933000E-04 4.69309054158000E-04 
4.79173446555000E-04 4.89206456974000E-04 4.99410967703000E-04 5.09789910301000E-04 
5.20346266439000E-04 5.31083068752000E-04 5.42003401716000E-04 5.53110402531000E-04 
5.64407262025000E-04 5.75897225565000E-04 5.87583593996000E-04 5.99469724586000E-04 
6.11559031991000E-04 6.23854989233000E-04 6.36361128704000E-04 6.49081043175000E-04 
6.62018386832000E-04 6.75176876324000E-04 6.88560291829000E-04 7.02172478144000E-04 
7.16017345787000E-04 7.30098872120000E-04 7.44421102494000E-04 7.58988151407000E-04 
7.73804203692000E-04 7.88873515713000E-04 8.04200416591000E-04 8.19789309451000E-04 
8.35644672677000E-04 8.51771061210000E-04 8.68173107848000E-04 8.84855524583000E-04 
9.01823103950000E-04 9.19080720406000E-04 9.36633331730000E-04 9.54485980448000E-04 
9.72643795281000E-04 9.91111992617000E-04 1.00989587801000E-03 1.02900084771000E-03 
1.04843239021000E-03 1.06819608780000E-03 1.08829761822000E-03 1.10874275626000E-03 
1.12953737539000E-03 1.15068744951000E-03 1.17219905464000E-03 1.19407837063000E-03 
1.21633168299000E-03 1.23896538468000E-03 1.26198597790000E-03 1.28540007604000E-03 
1.30921440551000E-03 1.33343580770000E-03 1.35807124096000E-03 1.38312778258000E-03 
1.40861263080000E-03 1.43453310693000E-03 1.46089665743000E-03 1.48771085603000E-03 
1.51498340594000E-03 1.54272214202000E-03 1.57093503309000E-03 1.59963018415000E-03 
1.62881583877000E-03 1.65850038143000E-03 1.68869233992000E-03 1.71940038779000E-03 
1.75063334690000E-03 1.78240018984000E-03 1.81471004264000E-03 1.84757218727000E-03 
1.88099606441000E-03 1.91499127608000E-03 1.94956758844000E-03 1.98473493462000E-03 
2.02050341749000E-03 2.05688331266000E-03 2.09388507137000E-03 2.13151932350000E-03 
2.16979688065000E-03 2.20872873921000E-03 2.24832608357000E-03 2.28860028926000E-03 
2.32956292630000E-03 2.37122576244000E-03 2.41360076663000E-03 2.45670011237000E-03 
2.50053618128000E-03 2.54512156660000E-03 2.59046907687000E-03 2.63659173954000E-03 
2.68350280475000E-03 2.73121574915000E-03 2.77974427976000E-03 2.82910233786000E-03 
2.87930410308000E-03 2.93036399742000E-03 2.98229668939000E-03 3.03511709825000E-03 
3.08884039829000E-03 3.14348202316000E-03 3.19905767035000E-03 3.25558330566000E-03 
3.31307516783000E-03 3.37154977314000E-03 3.43102392022000E-03 3.49151469485000E-03 
3.55303947484000E-03 3.61561593508000E-03 3.67926205258000E-03 3.74399611163000E-03 
3.80983670908000E-03 3.87680275965000E-03 3.94491350140000E-03 4.01418850122000E-03 
4.08464766048000E-03 4.15631122074000E-03 4.22919976954000E-03 4.30333424637000E-03 
4.37873594861000E-03 4.45542653772000E-03 4.53342804541000E-03 4.61276288003000E-03 
4.69345383292000E-03 4.77552408503000E-03 4.85899721357000E-03 4.94389719875000E-03 
5.03024843068000E-03 5.11807571641000E-03 5.20740428702000E-03 5.29825980487000E-03 
5.39066837100000E-03 5.48465653260000E-03 5.58025129066000E-03 5.67748010769000E-03 
5.77637091565000E-03 5.87695212396000E-03 5.97925262766000E-03 6.08330181569000E-03 
6.18912957938000E-03 6.29676632100000E-03 6.40624296249000E-03 6.51759095439000E-03 
6.63084228481000E-03 6.74602948866000E-03 6.86318565701000E-03 6.98234444655000E-03 
7.10354008930000E-03 7.22680740242000E-03 7.35218179823000E-03 7.47969929435000E-03 
7.60939652411000E-03 7.74131074701000E-03 7.87547985944000E-03 8.01194240560000E-03 
8.15073758854000E-03 8.29190528142000E-03 8.43548603900000E-03 8.58152110925000E-03 
8.73005244522000E-03 8.88112271708000E-03 9.03477532440000E-03 9.19105440861000E-03 
9.35000486566000E-03 9.51167235893000E-03 9.67610333238000E-03 9.84334502383000E-03 
1.00134454786000E-02 1.01864535632000E-02 1.03624189797000E-02 1.05413922793000E-02 
1.07234248777000E-02 1.09085690693000E-02 1.10968780425000E-02 1.12884058947000E-02 
1.14832076483000E-02 1.16813392661000E-02 1.18828576673000E-02 1.20878207443000E-02 
1.22962873791000E-02 1.25083174601000E-02 1.27239718994000E-02 1.29433126503000E-02 
1.31664027253000E-02 1.33933062138000E-02 1.36240883007000E-02 1.38588152853000E-02 
1.40975546002000E-02 1.43403748304000E-02 1.45873457336000E-02 1.48385382597000E-02 
1.50940245715000E-02 1.53538780652000E-02 1.56181733917000E-02 1.58869864780000E-02 
1.61603945489000E-02 1.64384761491000E-02 1.67213111662000E-02 1.70089808532000E-02 
1.73015678520000E-02 1.75991562172000E-02 1.79018314402000E-02 1.82096804738000E-02 
1.85227917569000E-02 1.88412552404000E-02 1.91651624127000E-02 1.94946063261000E-02 
1.98296816234000E-02 2.01704845652000E-02 2.05171130578000E-02 2.08696666806000E-02 
2.12282467156000E-02 2.15929561759000E-02 2.19638998354000E-02 2.23411842590000E-02 
2.27249178334000E-02 2.31152107976000E-02 2.35121752754000E-02 2.39159253069000E-02 
2.43265768817000E-02 2.47442479721000E-02 2.51690585669000E-02 2.56011307059000E-02 
2.60405885151000E-02 2.64875582423000E-02 2.69421682931000E-02 2.74045492683000E-02 
2.78748340010000E-02 2.83531575948000E-02 2.88396574630000E-02 2.93344733674000E-02 
2.98377474591000E-02 3.03496243190000E-02 3.08702509995000E-02 3.13997770665000E-02 
3.19383546426000E-02 3.24861384507000E-02 3.30432858585000E-02 3.36099569237000E-02 
3.41863144399000E-02 3.47725239834000E-02 3.53687539610000E-02 3.59751756579000E-02 
3.65919632875000E-02 3.72192940407000E-02 3.78573481377000E-02 3.85063088789000E-02 
3.91663626984000E-02 3.98376992167000E-02 4.05205112959000E-02 4.12149950946000E-02 
4.19213501246000E-02 4.26397793081000E-02 4.33704890358000E-02 4.41136892265000E-02 
4.48695933873000E-02 4.56384186747000E-02 4.64203859574000E-02 4.72157198796000E-02 
4.80246489251000E-02 4.88474054837000E-02 4.96842259174000E-02 5.05353506286000E-02 
5.14010241289000E-02 5.22814951095000E-02 5.31770165127000E-02 5.40878456045000E-02 
5.50142440485000E-02 5.59564779809000E-02 5.69148180875000E-02 5.78895396807000E-02 
5.88809227792000E-02 5.98892521882000E-02 6.09148175812000E-02 6.19579135833000E-02 
6.30188398558000E-02 6.40979011823000E-02 6.51954075562000E-02 6.63116742698000E-02 
6.74470220051000E-02 6.86017769254000E-02 6.97762707694000E-02 7.09708409466000E-02 
7.21858306338000E-02 7.34215888741000E-02 7.46784706768000E-02 7.59568371198000E-02 
7.72570554531000E-02 7.85794992042000E-02 7.99245482855000E-02 8.12925891038000E-02 
8.26840146706000E-02 8.40992247155000E-02 8.55386258011000E-02 8.70026314394000E-02 
8.84916622109000E-02 9.00061458853000E-02 9.15465175445000E-02 9.31132197074000E-02 
9.47067024574000E-02 9.63274235710000E-02 9.79758486502000E-02 9.96524512555000E-02 
1.01357713043000E-01 1.03092123900000E-01 1.04856182090000E-01 1.06650394393000E-01 
1.08475276252000E-01 1.10331351919000E-01 1.12219154609000E-01 1.14139226652000E-01 
1.16092119646000E-01 1.18078394621000E-01 1.20098622194000E-01 1.22153382739000E-01 
1.24243266547000E-01 1.26368874002000E-01 1.28530815750000E-01 1.30729712875000E-01 
1.32966197077000E-01 1.35240910856000E-01 1.37554507692000E-01 1.39907652237000E-01 
1.42301020504000E-01 1.44735300062000E-01 1.47211190231000E-01 1.49729402287000E-01 
1.52290659664000E-01 1.54895698161000E-01 1.57545266156000E-01 1.60240124817000E-01 
1.62981048327000E-01 1.65768824098000E-01 1.68604253006000E-01 1.71488149614000E-01 
1.74421342410000E-01 1.77404674042000E-01 1.80439001566000E-01 1.83525196684000E-01 
1.86664146000000E-01 1.89856751274000E-01 1.93103929679000E-01 1.96406614068000E-01 
1.99765753237000E-01 2.03182312201000E-01 2.06657272474000E-01 2.10191632342000E-01 
2.13786407160000E-01 2.17442629636000E-01 2.21161350133000E-01 2.24943636967000E-01 
2.28790576715000E-01 2.32703274530000E-01 2.36682854453000E-01 2.40730459742000E-01 
2.44847253193000E-01 2.49034417483000E-01 2.53293155504000E-01 2.57624690707000E-01 
2.62030267459000E-01 2.66511151397000E-01 2.71068629793000E-01 2.75704011921000E-01 
2.80418629438000E-01 2.85213836761000E-01 2.90091011461000E-01 2.95051554656000E-01 
3.00096891414000E-01 3.05228471163000E-01 3.10447768106000E-01 3.15756281645000E-01 
3.21155536815000E-01 3.26647084717000E-01 3.32232502967000E-01 3.37913396146000E-01 
3.43691396265000E-01 3.49568163233000E-01 3.55545385331000E-01 3.61624779698000E-01 
3.67808092828000E-01 3.74097101066000E-01 3.80493611122000E-01 3.86999460592000E-01 
3.93616518478000E-01 4.00346685734000E-01 4.07191895806000E-01 4.14154115192000E-01 
4.21235344001000E-01 4.28437616534000E-01 4.35763001864000E-01 4.43213604433000E-01 
4.50791564655000E-01 4.58499059531000E-01 4.66338303276000E-01 4.74311547951000E-01 
4.82421084117000E-01 4.90669241486000E-01 4.99058389593000E-01 5.07590938480000E-01 
5.16269339381000E-01 5.25096085435000E-01 5.34073712393000E-01 5.43204799355000E-01 
5.52491969505000E-01 5.61937890868000E-01 5.71545277073000E-01 5.81316888137000E-01 
5.91255531255000E-01 6.01364061607000E-01 6.11645383177000E-01 6.22102449591000E-01 
6.32738264961000E-01 6.43555884752000E-01 6.54558416656000E-01 6.65749021487000E-01 
6.77130914090000E-01 6.88707364262000E-01 7.00481697694000E-01 7.12457296923000E-01 
7.24637602308000E-01 7.37026113015000E-01 7.49626388022000E-01 7.62442047146000E-01 
7.75476772076000E-01 7.88734307438000E-01 8.02218461865000E-01 8.15933109092000E-01 
8.29882189074000E-01 8.44069709111000E-01 8.58499745002000E-01 8.73176442218000E-01 
8.88104017090000E-01 9.03286758021000E-01 9.18729026719000E-01 9.34435259449000E-01 
9.50409968308000E-01 9.66657742521000E-01 9.83183249757000E-01 9.99991237477000E-01 
1.01708653429000E+00 1.03447405134000E+00 1.05215878373000E+00 1.07014581194000E+00 
1.08844030330000E+00 1.10704751345000E+00 1.12597278789000E+00 1.14522156349000E+00 
1.16479937004000E+00 1.18471183187000E+00 1.20496466944000E+00 1.22556370101000E+00 
1.24651484427000E+00 1.26782411809000E+00 1.28949764421000E+00 1.31154164900000E+00 
1.33396246530000E+00 1.35676653415000E+00 1.37996040674000E+00 1.40355074621000E+00 
1.42754432962000E+00 1.45194804984000E+00 1.47676891760000E+00 1.50201406346000E+00 
1.52769073985000E+00 1.55380632319000E+00 1.58036831598000E+00 1.60738434897000E+00 
1.63486218334000E+00 1.66280971294000E+00 1.69123496655000E+00 1.72014611020000E+00 
1.74955144950000E+00 1.77945943204000E+00 1.80987864981000E+00 1.84081784164000E+00 
1.87228589578000E+00 1.90429185239000E+00 1.93684490616000E+00 1.96995440896000E+00 
2.00362987249000E+00 2.03788097108000E+00 2.07271754439000E+00 2.10814960031000E+00 
2.14418731778000E+00 2.18084104972000E+00 2.21812132607000E+00 2.25603885671000E+00 
2.29460453461000E+00 2.33382943896000E+00 2.37372483830000E+00 2.41430219382000E+00 
2.45557316260000E+00 2.49754960099000E+00 2.54024356802000E+00 2.58366732882000E+00 
2.62783335822000E+00 2.67275434424000E+00 2.71844319184000E+00 2.76491302651000E+00 
2.81217719816000E+00 2.86024928486000E+00 2.90914309679000E+00 2.95887268020000E+00 
3.00945232143000E+00 3.06089655105000E+00 3.11322014797000E+00 3.16643814375000E+00 
3.22056582690000E+00 3.27561874726000E+00 3.33161272046000E+00 3.38856383248000E+00 
3.44648844428000E+00 3.50540319647000E+00 3.56532501414000E+00 3.62627111165000E+00 
3.68825899764000E+00 3.75130648003000E+00 3.81543167114000E+00 3.88065299290000E+00 
3.94698918213000E+00 4.01445929593000E+00 4.08308271717000E+00 4.15287916003000E+00 
4.22386867566000E+00 4.29607165799000E+00 4.36950884954000E+00 4.44420134739000E+00 
4.52017060924000E+00 4.59743845960000E+00 4.67602709603000E+00 4.75595909552000E+00 
4.83725742099000E+00 4.91994542787000E+00 5.00404687082000E+00 5.08958591057000E+00 
5.17658712083000E+00 5.26507549535000E+00 5.35507645514000E+00 5.44661585574000E+00 
5.53971999463000E+00 5.63441561884000E+00 5.73072993258000E+00 5.82869060510000E+00 
5.92832577861000E+00 6.02966407635000E+00 6.13273461086000E+00 6.23756699232000E+00 
6.34419133703000E+00 6.45263827610000E+00 6.56293896425000E+00 6.67512508873000E+00 
6.78922887844000E+00 6.90528311318000E+00 7.02332113310000E+00 7.14337684824000E+00 
7.26548474828000E+00 7.38967991245000E+00 7.51599801962000E+00 7.64447535855000E+00 
7.77514883828000E+00 7.90805599878000E+00 8.04323502169000E+00 8.18072474135000E+00 
8.32056465588000E+00 8.46279493859000E+00 8.60745644949000E+00 8.75459074702000E+00 
8.90424010002000E+00 9.05644749986000E+00 9.21125667278000E+00 9.36871209245000E+00 
9.52885899278000E+00 9.69174338087000E+00 9.85741205024000E+00 1.00259125943000E+01 
1.01972934200000E+01 1.03716037618000E+01 1.05488936955000E+01 1.07292141533000E+01 
1.09126169376000E+01 1.10991547366000E+01 1.12888811389000E+01 1.14818506492000E+01 
1.16781187041000E+01 1.18777416874000E+01 1.20807769470000E+01 1.22872828110000E+01 
1.24973186046000E+01 1.27109446669000E+01 1.29282223686000E+01 1.31492141294000E+01 
1.33739834360000E+01 1.36025948601000E+01 1.38351140775000E+01 1.40716078864000E+01 
1.43121442269000E+01 1.45567922004000E+01 1.48056220896000E+01 1.50587053785000E+01 
1.53161147731000E+01 1.55779242219000E+01 1.58442089379000E+01 1.61150454196000E+01 
1.63905114728000E+01 1.66706862339000E+01 1.69556501914000E+01 1.72454852101000E+01 
1.75402745539000E+01 1.78401029102000E+01 1.81450564138000E+01 1.84552226719000E+01 
1.87706907893000E+01 1.90915513939000E+01 1.94178966628000E+01 1.97498203486000E+01 
2.00874178065000E+01 2.04307860219000E+01 2.07800236376000E+01 2.11352309830000E+01 
2.14965101023000E+01 2.18639647839000E+01 2.22377005904000E+01 2.26178248890000E+01 
2.30044468819000E+01 2.33976776383000E+01 2.37976301256000E+01 2.42044192425000E+01 
2.46181618516000E+01 2.50389768133000E+01 2.54669850194000E+01 2.59023094284000E+01 
2.63450751007000E+01 2.67954092342000E+01 2.72534412012000E+01 2.77193025855000E+01 
2.81931272200000E+01 2.86750512253000E+01 2.91652130489000E+01 2.96637535048000E+01 
3.01708158141000E+01 3.06865456458000E+01 3.12110911593000E+01 3.17446030462000E+01 
3.22872345743000E+01 3.28391416311000E+01 3.34004827687000E+01 3.39714192497000E+01 
3.45521150930000E+01 3.51427371213000E+01 3.57434550089000E+01 3.63544413305000E+01 
3.69758716105000E+01 3.76079243738000E+01 3.82507811971000E+01 3.89046267606000E+01 
3.95696489014000E+01 4.02460386676000E+01 4.09339903730000E+01 4.16337016526000E+01 
4.23453735200000E+01 4.30692104247000E+01 4.38054203112000E+01 4.45542146782000E+01 
4.53158086398000E+01 4.60904209874000E+01 4.68782742519000E+01 4.76795947685000E+01 
4.84946127410000E+01 4.93235623083000E+01 5.01666816115000E+01 5.10242128626000E+01 
5.18964024136000E+01 5.27835008278000E+01 5.36857629512000E+01 5.46034479865000E+01 
5.55368195667000E+01 5.64861458315000E+01 5.74516995039000E+01 5.84337579687000E+01 
5.94326033525000E+01 6.04485226040000E+01 6.14818075774000E+01 6.25327551153000E+01 
6.36016671346000E+01 6.46888507132000E+01 6.57946181777000E+01 6.69192871938000E+01 
6.80631808571000E+01 6.92266277862000E+01 7.04099622168000E+01 7.16135240980000E+01 
7.28376591898000E+01 7.40827191627000E+01 7.53490616981000E+01 7.66370505919000E+01 
7.79470558582000E+01 7.92794538364000E+01 8.06346272984000E+01 8.20129655595000E+01 
8.34148645896000E+01 8.48407271270000E+01 8.62909627946000E+01 8.77659882169000E+01 
8.92662271403000E+01 9.07921105543000E+01 9.23440768158000E+01 9.39225717745000E+01 
9.55280489016000E+01 9.71609694195000E+01 9.88218024348000E+01 1.00511025073000E+02 
1.02229122614000E+02 1.03976588635000E+02 1.05753925149000E+02 1.07561642750000E+02 
1.09400260760000E+02 1.11270307380000E+02 1.13172319836000E+02 1.15106844541000E+02 
1.17074437246000E+02 1.19075663202000E+02 1.21111097323000E+02 1.23181324350000E+02 
1.25286939018000E+02 1.27428546231000E+02 1.29606761230000E+02 1.31822209774000E+02 
1.34075528320000E+02 1.36367364201000E+02 1.38698375818000E+02 1.41069232826000E+02 
1.43480616325000E+02 1.45933219060000E+02 1.48427745615000E+02 1.50964912621000E+02 
1.53545448956000E+02 1.56170095958000E+02 1.58839607637000E+02 1.61554750893000E+02 
1.64316305734000E+02 1.67125065501000E+02 1.69981837096000E+02 1.72887441214000E+02 
1.75842712580000E+02 1.78848500185000E+02 1.81905667535000E+02 1.85015092893000E+02 
1.88177669539000E+02 1.91394306019000E+02 1.94665926410000E+02 1.97993470586000E+02 
2.01377894485000E+02 
</PP_R>
    <PP_RAB>
1.82664125031000E-06 1.85786513320000E-06 1.88962274479000E-06 1.92192320842000E-06 
1.95477580341000E-06 1.98818996766000E-06 2.02217530041000E-06 2.05674156500000E-06 
2.09189869163000E-06 2.12765678028000E-06 2.16402610356000E-06 2.20101710965000E-06 
2.23864042537000E-06 2.27690685917000E-06 2.31582740424000E-06 2.35541324172000E-06 
2.39567574384000E-06 2.43662647724000E-06 2.47827720628000E-06 2.52063989641000E-06 
2.56372671760000E-06 2.60755004786000E-06 2.65212247680000E-06 2.69745680920000E-06 
2.74356606875000E-06 2.79046350173000E-06 2.83816258089000E-06 2.88667700923000E-06 
2.93602072402000E-06 2.98620790074000E-06 3.03725295721000E-06 3.08917055769000E-06 
3.14197561708000E-06 3.19568330527000E-06 3.25030905144000E-06 3.30586854849000E-06 
3.36237775762000E-06 3.41985291280000E-06 3.47831052555000E-06 3.53776738961000E-06 
3.59824058578000E-06 3.65974748684000E-06 3.72230576254000E-06 3.78593338465000E-06 
3.85064863216000E-06 3.91647009650000E-06 3.98341668693000E-06 4.05150763588000E-06 
4.12076250457000E-06 4.19120118860000E-06 4.26284392362000E-06 4.33571129121000E-06 
4.40982422476000E-06 4.48520401547000E-06 4.56187231850000E-06 4.63985115918000E-06 
4.71916293930000E-06 4.79983044362000E-06 4.88187684635000E-06 4.96532571782000E-06 
5.05020103129000E-06 5.13652716979000E-06 5.22432893315000E-06 5.31363154512000E-06 
5.40446066061000E-06 5.49684237306000E-06 5.59080322196000E-06 5.68637020044000E-06 
5.78357076304000E-06 5.88243283361000E-06 5.98298481330000E-06 6.08525558874000E-06 
6.18927454037000E-06 6.29507155080000E-06 6.40267701347000E-06 6.51212184136000E-06 
6.62343747583000E-06 6.73665589572000E-06 6.85180962649000E-06 6.96893174958000E-06 
7.08805591190000E-06 7.20921633553000E-06 7.33244782750000E-06 7.45778578985000E-06 
7.58526622974000E-06 7.71492576984000E-06 7.84680165882000E-06 7.98093178207000E-06 
8.11735467259000E-06 8.25610952203000E-06 8.39723619197000E-06 8.54077522537000E-06 
8.68676785823000E-06 8.83525603139000E-06 8.98628240265000E-06 9.13989035894000E-06 
9.29612402887000E-06 9.45502829535000E-06 9.61664880849000E-06 9.78103199875000E-06 
9.94822509023000E-06 1.01182761143000E-05 1.02912339232000E-05 1.04671482046000E-05 
1.06460694950000E-05 1.08280491953000E-05 1.10131395845000E-05 1.12013938356000E-05 
1.13928660304000E-05 1.15876111751000E-05 1.17856852163000E-05 1.19871450569000E-05 
1.21920485722000E-05 1.24004546271000E-05 1.26124230927000E-05 1.28280148634000E-05 
1.30472918746000E-05 1.32703171202000E-05 1.34971546711000E-05 1.37278696934000E-05 
1.39625284670000E-05 1.42011984049000E-05 1.44439480722000E-05 1.46908472064000E-05 
1.49419667366000E-05 1.51973788048000E-05 1.54571567858000E-05 1.57213753088000E-05 
1.59901102787000E-05 1.62634388979000E-05 1.65414396884000E-05 1.68241925144000E-05 
1.71117786054000E-05 1.74042805792000E-05 1.77017824661000E-05 1.80043697325000E-05 
1.83121293059000E-05 1.86251495997000E-05 1.89435205386000E-05 1.92673335844000E-05 
1.95966817623000E-05 1.99316596876000E-05 2.02723635931000E-05 2.06188913563000E-05 
2.09713425281000E-05 2.13298183607000E-05 2.16944218374000E-05 2.20652577017000E-05 
2.24424324875000E-05 2.28260545499000E-05 2.32162340961000E-05 2.36130832171000E-05 
2.40167159199000E-05 2.44272481605000E-05 2.48447978768000E-05 2.52694850228000E-05 
2.57014316028000E-05 2.61407617068000E-05 2.65876015458000E-05 2.70420794882000E-05 
2.75043260967000E-05 2.79744741660000E-05 2.84526587603000E-05 2.89390172529000E-05 
2.94336893651000E-05 2.99368172068000E-05 3.04485453167000E-05 3.09690207045000E-05 
3.14983928926000E-05 3.20368139595000E-05 3.25844385832000E-05 3.31414240855000E-05 
3.37079304776000E-05 3.42841205058000E-05 3.48701596985000E-05 3.54662164133000E-05 
3.60724618857000E-05 3.66890702785000E-05 3.73162187311000E-05 3.79540874113000E-05 
3.86028595663000E-05 3.92627215760000E-05 3.99338630057000E-05 4.06164766616000E-05 
4.13107586452000E-05 4.20169084104000E-05 4.27351288203000E-05 4.34656262057000E-05 
4.42086104245000E-05 4.49642949216000E-05 4.57328967905000E-05 4.65146368357000E-05 
4.73097396359000E-05 4.81184336089000E-05 4.89409510767000E-05 4.97775283327000E-05 
5.06284057093000E-05 5.14938276472000E-05 5.23740427654000E-05 5.32693039325000E-05 
5.41798683399000E-05 5.51059975750000E-05 5.60479576969000E-05 5.70060193124000E-05 
5.79804576542000E-05 5.89715526595000E-05 5.99795890507000E-05 6.10048564172000E-05 
6.20476492984000E-05 6.31082672686000E-05 6.41870150228000E-05 6.52842024644000E-05 
6.64001447940000E-05 6.75351626003000E-05 6.86895819520000E-05 6.98637344913000E-05 
7.10579575297000E-05 7.22725941442000E-05 7.35079932765000E-05 7.47645098328000E-05 
7.60425047860000E-05 7.73423452794000E-05 7.86644047319000E-05 8.00090629457000E-05 
8.13767062150000E-05 8.27677274373000E-05 8.41825262261000E-05 8.56215090257000E-05 
8.70850892279000E-05 8.85736872911000E-05 9.00877308607000E-05 9.16276548921000E-05 
9.31939017757000E-05 9.47869214639000E-05 9.64071716004000E-05 9.80551176518000E-05 
9.97312330410000E-05 1.01435999284000E-04 1.03169906126000E-04 1.04933451686000E-04 
1.06727142596000E-04 1.08551494149000E-04 1.10407030445000E-04 1.12294284545000E-04 
1.14213798620000E-04 1.16166124109000E-04 1.18151821878000E-04 1.20171462378000E-04 
1.22225625815000E-04 1.24314902308000E-04 1.26439892068000E-04 1.28601205561000E-04 
1.30799463693000E-04 1.33035297979000E-04 1.35309350732000E-04 1.37622275243000E-04 
1.39974735971000E-04 1.42367408732000E-04 1.44800980894000E-04 1.47276151577000E-04 
1.49793631847000E-04 1.52354144930000E-04 1.54958426410000E-04 1.57607224447000E-04 
1.60301299990000E-04 1.63041426995000E-04 1.65828392647000E-04 1.68662997586000E-04 
1.71546056142000E-04 1.74478396560000E-04 1.77460861244000E-04 1.80494307001000E-04 
1.83579605278000E-04 1.86717642424000E-04 1.89909319936000E-04 1.93155554720000E-04 
1.96457279358000E-04 1.99815442370000E-04 2.03231008492000E-04 2.06704958950000E-04 
2.10238291743000E-04 2.13832021929000E-04 2.17487181917000E-04 2.21204821764000E-04 
2.24986009476000E-04 2.28831831314000E-04 2.32743392110000E-04 2.36721815578000E-04 
2.40768244643000E-04 2.44883841766000E-04 2.49069789278000E-04 2.53327289720000E-04 
2.57657566191000E-04 2.62061862695000E-04 2.66541444500000E-04 2.71097598505000E-04 
2.75731633604000E-04 2.80444881066000E-04 2.85238694915000E-04 2.90114452321000E-04 
2.95073553996000E-04 3.00117424593000E-04 3.05247513119000E-04 3.10465293348000E-04 
3.15772264248000E-04 3.21169950409000E-04 3.26659902482000E-04 3.32243697624000E-04 
3.37922939951000E-04 3.43699261000000E-04 3.49574320195000E-04 3.55549805329000E-04 
3.61627433041000E-04 3.67808949316000E-04 3.74096129986000E-04 3.80490781234000E-04 
3.86994740121000E-04 3.93609875108000E-04 4.00338086596000E-04 4.07181307469000E-04 
4.14141503653000E-04 4.21220674676000E-04 4.28420854248000E-04 4.35744110842000E-04 
4.43192548286000E-04 4.50768306374000E-04 4.58473561473000E-04 4.66310527154000E-04 
4.74281454827000E-04 4.82388634383000E-04 4.90634394860000E-04 4.99021105104000E-04 
5.07551174455000E-04 5.16227053437000E-04 5.25051234462000E-04 5.34026252547000E-04 
5.43154686040000E-04 5.52439157364000E-04 5.61882333767000E-04 5.71486928092000E-04 
5.81255699553000E-04 5.91191454529000E-04 6.01297047369000E-04 6.11575381215000E-04 
6.22029408834000E-04 6.32662133466000E-04 6.43476609685000E-04 6.54475944283000E-04 
6.65663297155000E-04 6.77041882212000E-04 6.88614968299000E-04 7.00385880142000E-04 
7.12357999295000E-04 7.24534765116000E-04 7.36919675755000E-04 7.49516289157000E-04 
7.62328224085000E-04 7.75359161160000E-04 7.88612843919000E-04 8.02093079887000E-04 
8.15803741675000E-04 8.29748768093000E-04 8.43932165275000E-04 8.58358007837000E-04 
8.73030440045000E-04 8.87953677004000E-04 9.03132005872000E-04 9.18569787089000E-04 
9.34271455631000E-04 9.50241522283000E-04 9.66484574937000E-04 9.83005279906000E-04 
9.99808383271000E-04 1.01689871224000E-03 1.03428117652000E-03 1.05196076978000E-03 
1.06994257101000E-03 1.08823174603000E-03 1.10683354898000E-03 1.12575332379000E-03 
1.14499650574000E-03 1.16456862304000E-03 1.18447529836000E-03 1.20472225052000E-03 
1.22531529606000E-03 1.24626035098000E-03 1.26756343238000E-03 1.28923066023000E-03 
1.31126825910000E-03 1.33368255996000E-03 1.35648000202000E-03 1.37966713453000E-03 
1.40325061872000E-03 1.42723722965000E-03 1.45163385822000E-03 1.47644751310000E-03 
1.50168532279000E-03 1.52735453761000E-03 1.55346253184000E-03 1.58001680578000E-03 
1.60702498799000E-03 1.63449483737000E-03 1.66243424549000E-03 1.69085123880000E-03 
1.71975398095000E-03 1.74915077515000E-03 1.77905006651000E-03 1.80946044453000E-03 
1.84039064552000E-03 1.87184955513000E-03 1.90384621090000E-03 1.93638980484000E-03 
1.96948968610000E-03 2.00315536364000E-03 2.03739650895000E-03 2.07222295885000E-03 
2.10764471831000E-03 2.14367196331000E-03 2.18031504379000E-03 2.21758448659000E-03 
2.25549099849000E-03 2.29404546932000E-03 2.33325897501000E-03 2.37314278086000E-03 
2.41370834471000E-03 2.45496732026000E-03 2.49693156042000E-03 2.53961312069000E-03 
2.58302426267000E-03 2.62717745754000E-03 2.67208538965000E-03 2.71776096019000E-03 
2.76421729086000E-03 2.81146772766000E-03 2.85952584475000E-03 2.90840544827000E-03 
2.95812058040000E-03 3.00868552333000E-03 3.06011480338000E-03 3.11242319521000E-03 
3.16562572599000E-03 3.21973767979000E-03 3.27477460192000E-03 3.33075230342000E-03 
3.38768686560000E-03 3.44559464466000E-03 3.50449227640000E-03 3.56439668094000E-03 
3.62532506769000E-03 3.68729494016000E-03 3.75032410113000E-03 3.81443065763000E-03 
3.87963302625000E-03 3.94594993837000E-03 4.01340044554000E-03 4.08200392501000E-03 
4.15178008520000E-03 4.22274897148000E-03 4.29493097182000E-03 4.36834682272000E-03 
4.44301761513000E-03 4.51896480053000E-03 4.59621019706000E-03 4.67477599585000E-03 
4.75468476732000E-03 4.83595946771000E-03 4.91862344568000E-03 5.00270044899000E-03 
5.08821463133000E-03 5.17519055927000E-03 5.26365321931000E-03 5.35362802507000E-03 
5.44514082456000E-03 5.53821790765000E-03 5.63288601356000E-03 5.72917233863000E-03 
5.82710454405000E-03 5.92671076385000E-03 6.02801961296000E-03 6.13106019545000E-03 
6.23586211291000E-03 6.34245547287000E-03 6.45087089756000E-03 6.56113953263000E-03 
6.67329305613000E-03 6.78736368759000E-03 6.90338419729000E-03 7.02138791568000E-03 
7.14140874296000E-03 7.26348115877000E-03 7.38764023217000E-03 7.51392163165000E-03 
7.64236163541000E-03 7.77299714178000E-03 7.90586567982000E-03 8.04100542008000E-03 
8.17845518560000E-03 8.31825446304000E-03 8.46044341402000E-03 8.60506288667000E-03 
8.75215442737000E-03 8.90176029269000E-03 9.05392346147000E-03 9.20868764727000E-03 
9.36609731083000E-03 9.52619767290000E-03 9.68903472723000E-03 9.85465525375000E-03 