<UPF version="2.0.1">
  <PP_INFO>
Generated using Vanderbilt code, version   7  3  6
Author: kfg        Generation date:   22    9   15
Automatically converted from original format
1        The Pseudo was generated with a Scalar-Relativistic Calculation
1.80000000000E+00    Local Potential cutoff radius
nl pn  l   occ               Rcut            Rcut US             E pseu
4S  4  0  2.00      0.00000000000      1.80000000000     -3.52417907000
4P  4  1  6.00      0.00000000000      2.00000000000     -2.04971310500
4D  4  2  1.00      0.00000000000      2.20000000000     -0.18569711200
5S  5  0  2.00      0.00000000000      1.80000000000     -0.30281801900
5P  5  1  0.00      0.00000000000      2.00000000000     -0.10468826100
</PP_INFO>
  <PP_HEADER element="Y" pseudo_type="US" relativistic="scalar" is_ultrasoft="T" is_paw="F" is_coulomb="F" has_so="F" has_wfc="F" has_gipaw="F" core_correction="T" functional="PBESOL" z_valence="11.0" total_psenergy="-92.2924025344" wfc_cutoff="0.0" rho_cutoff="0.0" l_max="2" mesh_size="885" number_of_wfc="5" number_of_proj="6"/>
  <PP_MESH>
    <PP_R>
0.00000000000000E+00 1.08643100205000E-06 2.19143302584000E-06 3.31532351708000E-06 
4.45842534774000E-06 5.62106690887000E-06 6.80358220489000E-06 8.00631094956000E-06 
9.22959866358000E-06 1.04737967738000E-05 1.17392627144000E-05 1.30263600290000E-05 
1.43354584760000E-05 1.56669341340000E-05 1.70211695100000E-05 1.83985536499000E-05 
1.97994822493000E-05 2.12243577680000E-05 2.26735895451000E-05 2.41475939168000E-05 
2.56467943362000E-05 2.71716214944000E-05 2.87225134448000E-05 3.02999157287000E-05 
3.19042815031000E-05 3.35360716714000E-05 3.51957550153000E-05 3.68838083297000E-05 
3.86007165596000E-05 4.03469729395000E-05 4.21230791352000E-05 4.39295453875000E-05 
4.57668906593000E-05 4.76356427843000E-05 4.95363386188000E-05 5.14695241959000E-05 
5.34357548825000E-05 5.54355955386000E-05 5.74696206798000E-05 5.95384146419000E-05 
6.16425717497000E-05 6.37826964866000E-05 6.59594036691000E-05 6.81733186230000E-05 
7.04250773633000E-05 7.27153267767000E-05 7.50447248075000E-05 7.74139406467000E-05 
7.98236549241000E-05 8.22745599041000E-05 8.47673596843000E-05 8.73027703976000E-05 
8.98815204187000E-05 9.25043505725000E-05 9.51720143472000E-05 9.78852781112000E-05 
1.00644921333000E-04 1.03451736803000E-04 1.06306530867000E-04 1.09210123652000E-04 
1.12163349303000E-04 1.15167056224000E-04 1.18222107324000E-04 1.21329380258000E-04 
1.24489767687000E-04 1.27704177528000E-04 1.30973533219000E-04 1.34298773983000E-04 
1.37680855097000E-04 1.41120748168000E-04 1.44619441410000E-04 1.48177939930000E-04 
1.51797266016000E-04 1.55478459430000E-04 1.59222577708000E-04 1.63030696463000E-04 
1.66903909693000E-04 1.70843330098000E-04 1.74850089397000E-04 1.78925338654000E-04 
1.83070248610000E-04 1.87286010016000E-04 1.91573833981000E-04 1.95934952312000E-04 
2.00370617874000E-04 2.04882104949000E-04 2.09470709599000E-04 2.14137750041000E-04 
2.18884567027000E-04 2.23712524224000E-04 2.28623008611000E-04 2.33617430876000E-04 
2.38697225819000E-04 2.43863852768000E-04 2.49118795993000E-04 2.54463565139000E-04 
2.59899695654000E-04 2.65428749234000E-04 2.71052314268000E-04 2.76772006298000E-04 
2.82589468481000E-04 2.88506372061000E-04 2.94524416850000E-04 3.00645331716000E-04 
3.06870875079000E-04 3.13202835418000E-04 3.19643031781000E-04 3.26193314313000E-04 
3.32855564784000E-04 3.39631697128000E-04 3.46523657998000E-04 3.53533427320000E-04 
3.60663018866000E-04 3.67914480830000E-04 3.75289896415000E-04 3.82791384437000E-04 
3.90421099927000E-04 3.98181234755000E-04 4.06074018258000E-04 4.14101717880000E-04 
4.22266639823000E-04 4.30571129712000E-04 4.39017573265000E-04 4.47608396984000E-04 
4.56346068844000E-04 4.65233099010000E-04 4.74272040554000E-04 4.83465490189000E-04 
4.92816089015000E-04 5.02326523278000E-04 5.11999525141000E-04 5.21837873472000E-04 
5.31844394637000E-04 5.42021963316000E-04 5.52373503328000E-04 5.62901988470000E-04 
5.73610443371000E-04 5.84501944364000E-04 5.95579620366000E-04 6.06846653779000E-04 
6.18306281404000E-04 6.29961795370000E-04 6.41816544081000E-04 6.53873933176000E-04 
6.66137426510000E-04 6.78610547148000E-04 6.91296878376000E-04 7.04200064730000E-04 
7.17323813048000E-04 7.30671893527000E-04 7.44248140813000E-04 7.58056455100000E-04 
7.72100803248000E-04 7.86385219927000E-04 8.00913808774000E-04 8.15690743571000E-04 
8.30720269445000E-04 8.46006704089000E-04 8.61554438999000E-04 8.77367940739000E-04 
8.93451752221000E-04 9.09810494014000E-04 9.26448865667000E-04 9.43371647063000E-04 
9.60583699789000E-04 9.78089968536000E-04 9.95895482514000E-04 1.01400535690000E-03 
1.03242479432000E-03 1.05115908632000E-03 1.07021361489000E-03 1.08959385403000E-03 
1.10930537132000E-03 1.12935382948000E-03 1.14974498806000E-03 1.17048470503000E-03 
1.19157893852000E-03 1.21303374849000E-03 1.23485529850000E-03 1.25704985745000E-03 
1.27962380141000E-03 1.30258361543000E-03 1.32593589544000E-03 1.34968735008000E-03 
1.37384480269000E-03 1.39841519324000E-03 1.42340558032000E-03 1.44882314319000E-03 
1.47467518383000E-03 1.50096912902000E-03 1.52771253251000E-03 1.55491307716000E-03 
1.58257857716000E-03 1.61071698027000E-03 1.63933637011000E-03 1.66844496848000E-03 
1.69805113771000E-03 1.72816338309000E-03 1.75879035528000E-03 1.78994085281000E-03 
1.82162382463000E-03 1.85384837263000E-03 1.88662375431000E-03 1.91995938539000E-03 
1.95386484257000E-03 1.98834986621000E-03 2.02342436321000E-03 2.05909840978000E-03 
2.09538225439000E-03 2.13228632069000E-03 2.16982121050000E-03 2.20799770686000E-03 
2.24682677715000E-03 2.28631957620000E-03 2.32648744954000E-03 2.36734193662000E-03 
2.40889477413000E-03 2.45115789941000E-03 2.49414345383000E-03 2.53786378632000E-03 
2.58233145687000E-03 2.62755924019000E-03 2.67356012935000E-03 2.72034733950000E-03 
2.76793431172000E-03 2.81633471681000E-03 2.86556245929000E-03 2.91563168131000E-03 
2.96655676681000E-03 3.01835234557000E-03 3.07103329747000E-03 3.12461475672000E-03 
3.17911211623000E-03 3.23454103205000E-03 3.29091742782000E-03 3.34825749941000E-03 
3.40657771949000E-03 3.46589484234000E-03 3.52622590862000E-03 3.58758825028000E-03 
3.64999949553000E-03 3.71347757392000E-03 3.77804072147000E-03 3.84370748592000E-03 
3.91049673207000E-03 3.97842764716000E-03 4.04751974644000E-03 4.11779287874000E-03 
4.18926723215000E-03 4.26196333989000E-03 4.33590208613000E-03 4.41110471206000E-03 
4.48759282191000E-03 4.56538838926000E-03 4.64451376326000E-03 4.72499167510000E-03 
4.80684524452000E-03 4.89009798648000E-03 4.97477381787000E-03 5.06089706443000E-03 
5.14849246769000E-03 5.23758519212000E-03 5.32820083234000E-03 5.42036542046000E-03 
5.51410543359000E-03 5.60944780142000E-03 5.70641991397000E-03 5.80504962944000E-03 
5.90536528225000E-03 6.00739569115000E-03 6.11117016749000E-03 6.21671852367000E-03 
6.32407108170000E-03 6.43325868188000E-03 6.54431269171000E-03 6.65726501484000E-03 
6.77214810030000E-03 6.88899495178000E-03 7.00783913711000E-03 7.12871479792000E-03 
7.25165665946000E-03 7.37670004055000E-03 7.50388086372000E-03 7.63323566557000E-03 
7.76480160723000E-03 7.89861648504000E-03 8.03471874144000E-03 8.17314747597000E-03 
8.31394245651000E-03 8.45714413076000E-03 8.60279363777000E-03 8.75093281984000E-03 
8.90160423447000E-03 9.05485116666000E-03 9.21071764129000E-03 9.36924843576000E-03 
9.53048909292000E-03 9.69448593409000E-03 9.86128607238000E-03 1.00309374262000E-02 
1.02034887332000E-02 1.03789895640000E-02 1.05574903365000E-02 1.07390423307000E-02 
1.09236977028000E-02 1.11115095007000E-02 1.13025316793000E-02 1.14968191154000E-02 
1.16944276240000E-02 1.18954139744000E-02 1.20998359059000E-02 1.23077521450000E-02 
1.25192224220000E-02 1.27343074883000E-02 1.29530691337000E-02 1.31755702041000E-02 
1.34018746197000E-02 1.36320473935000E-02 1.38661546496000E-02 1.41042636425000E-02 
1.43464427764000E-02 1.45927616246000E-02 1.48432909497000E-02 1.50981027240000E-02 
1.53572701499000E-02 1.56208676813000E-02 1.58889710447000E-02 1.61616572608000E-02 
1.64390046673000E-02 1.67210929405000E-02 1.70080031192000E-02 1.72998176269000E-02 
1.75966202964000E-02 1.78984963933000E-02 1.82055326407000E-02 1.85178172443000E-02 
1.88354399174000E-02 1.91584919068000E-02 1.94870660191000E-02 1.98212566473000E-02 
2.01611597979000E-02 2.05068731184000E-02 2.08584959257000E-02 2.12161292342000E-02 
2.15798757849000E-02 2.19498400753000E-02 2.23261283889000E-02 2.27088488260000E-02 
2.30981113350000E-02 2.34940277432000E-02 2.38967117899000E-02 2.43062791584000E-02 
2.47228475094000E-02 2.51465365150000E-02 2.55774678929000E-02 2.60157654413000E-02 
2.64615550745000E-02 2.69149648594000E-02 2.73761250518000E-02 2.78451681341000E-02 
2.83222288533000E-02 2.88074442596000E-02 2.93009537462000E-02 2.98028990887000E-02 
3.03134244863000E-02 3.08326766030000E-02 3.13608046100000E-02 3.18979602283000E-02 
3.24442977722000E-02 3.29999741939000E-02 3.35651491285000E-02 3.41399849399000E-02 
3.47246467672000E-02 3.53193025725000E-02 3.59241231889000E-02 3.65392823696000E-02 
3.71649568380000E-02 3.78013263383000E-02 3.84485736870000E-02 3.91068848258000E-02 
3.97764488748000E-02 4.04574581868000E-02 4.11501084025000E-02 4.18545985070000E-02 
4.25711308866000E-02 4.32999113873000E-02 4.40411493735000E-02 4.47950577886000E-02 
4.55618532159000E-02 4.63417559409000E-02 4.71349900145000E-02 4.79417833176000E-02 
4.87623676262000E-02 4.95969786784000E-02 5.04458562417000E-02 5.13092441822000E-02 
5.21873905346000E-02 5.30805475734000E-02 5.39889718852000E-02 5.49129244429000E-02 
5.58526706800000E-02 5.68084805675000E-02 5.77806286911000E-02 5.87693943302000E-02 
5.97750615379000E-02 6.07979192230000E-02 6.18382612327000E-02 6.28963864372000E-02 
6.39725988153000E-02 6.50672075420000E-02 6.61805270773000E-02 6.73128772562000E-02 
6.84645833811000E-02 6.96359763149000E-02 7.08273925761000E-02 7.20391744355000E-02 
7.32716700147000E-02 7.45252333856000E-02 7.58002246729000E-02 7.70970101569000E-02 
7.84159623789000E-02 7.97574602484000E-02 8.11218891518000E-02 8.25096410630000E-02 
8.39211146564000E-02 8.53567154210000E-02 8.68168557771000E-02 8.83019551949000E-02 
8.98124403145000E-02 9.13487450692000E-02 9.29113108097000E-02 9.45005864307000E-02 
9.61170285004000E-02 9.77611013914000E-02 9.94332774140000E-02 1.01134036952000E-01 
1.02863868601000E-01 1.04623269307000E-01 1.06412744513000E-01 1.08232808301000E-01 
1.10083983538000E-01 1.11966802033000E-01 1.13881804683000E-01 1.15829541630000E-01 
1.17810572422000E-01 1.19825466170000E-01 1.21874801715000E-01 1.23959167791000E-01 
1.26079163197000E-01 1.28235396965000E-01 1.30428488540000E-01 1.32659067955000E-01 
1.34927776012000E-01 1.37235264466000E-01 1.39582196216000E-01 1.41969245489000E-01 
1.44397098037000E-01 1.46866451336000E-01 1.49378014784000E-01 1.51932509904000E-01 
1.54530670553000E-01 1.57173243132000E-01 1.59860986801000E-01 1.62594673697000E-01 
1.65375089156000E-01 1.68203031936000E-01 1.71079314452000E-01 1.74004763003000E-01 
1.76980218014000E-01 1.80006534276000E-01 1.83084581190000E-01 1.86215243022000E-01 
1.89399419148000E-01 1.92638024320000E-01 1.95931988929000E-01 1.99282259265000E-01 
2.02689797798000E-01 2.06155583445000E-01 2.09680611862000E-01 2.13265895719000E-01 
2.16912465001000E-01 2.20621367295000E-01 2.24393668098000E-01 2.28230451118000E-01 
2.32132818590000E-01 2.36101891587000E-01 2.40138810347000E-01 2.44244734600000E-01 
2.48420843898000E-01 2.52668337956000E-01 2.56988436997000E-01 2.61382382102000E-01 
2.65851435566000E-01 2.70396881262000E-01 2.75020025009000E-01 2.79722194946000E-01 
2.84504741915000E-01 2.89369039850000E-01 2.94316486170000E-01 2.99348502180000E-01 
3.04466533481000E-01 3.09672050385000E-01 3.14966548334000E-01 3.20351548338000E-01 
3.25828597400000E-01 3.31399268973000E-01 3.37065163402000E-01 3.42827908389000E-01 
3.48689159458000E-01 3.54650600435000E-01 3.60713943925000E-01 3.66880931810000E-01 
3.73153335747000E-01 3.79532957674000E-01 3.86021630335000E-01 3.92621217800000E-01 
3.99333616002000E-01 4.06160753283000E-01 4.13104590948000E-01 4.20167123827000E-01 
4.27350380849000E-01 4.34656425624000E-01 4.42087357039000E-01 4.49645309855000E-01 
4.57332455327000E-01 4.65151001823000E-01 4.73103195459000E-01 4.81191320747000E-01 
4.89417701249000E-01 4.97784700245000E-01 5.06294721411000E-01 5.14950209513000E-01 
5.23753651104000E-01 5.32707575243000E-01 5.41814554219000E-01 5.51077204291000E-01 
5.60498186438000E-01 5.70080207127000E-01 5.79826019088000E-01 5.89738422102000E-01 
5.99820263812000E-01 6.10074440535000E-01 6.20503898099000E-01 6.31111632685000E-01 
6.41900691688000E-01 6.52874174598000E-01 6.64035233884000E-01 6.75387075902000E-01 
6.86932961816000E-01 6.98676208536000E-01 7.10620189670000E-01 7.22768336492000E-01 
7.35124138930000E-01 7.47691146567000E-01 7.60472969661000E-01 7.73473280182000E-01 
7.86695812868000E-01 8.00144366296000E-01 8.13822803977000E-01 8.27735055460000E-01 
8.41885117466000E-01 8.56277055033000E-01 8.70915002688000E-01 8.85803165630000E-01 
9.00945820938000E-01 9.16347318806000E-01 9.32012083785000E-01 9.47944616060000E-01 
9.64149492738000E-01 9.80631369167000E-01 9.97394980272000E-01 1.01444514191000E+00 
1.03178675227000E+00 1.04942479326000E+00 1.06736433194000E+00 1.08561052199000E+00 
1.10416860521000E+00 1.12304391295000E+00 1.14224186774000E+00 1.16176798477000E+00 
1.18162787352000E+00 1.20182723935000E+00 1.22237188516000E+00 1.24326771300000E+00 
1.26452072587000E+00 1.28613702932000E+00 1.30812283332000E+00 1.33048445395000E+00 
1.35322831528000E+00 1.37636095118000E+00 1.39988900720000E+00 1.42381924251000E+00 
1.44815853179000E+00 1.47291386725000E+00 1.49809236062000E+00 1.52370124520000E+00 
1.54974787792000E+00 1.57623974148000E+00 1.60318444647000E+00 1.63058973358000E+00 
1.65846347584000E+00 1.68681368081000E+00 1.71564849298000E+00 1.74497619602000E+00 
1.77480521520000E+00 1.80514411985000E+00 1.83600162572000E+00 1.86738659760000E+00 
1.89930805176000E+00 1.93177515864000E+00 1.96479724540000E+00 1.99838379864000E+00 
2.03254446714000E+00 2.06728906459000E+00 2.10262757244000E+00 2.13857014277000E+00 
2.17512710117000E+00 2.21230894976000E+00 2.25012637016000E+00 2.28859022658000E+00 
2.32771156895000E+00 2.36750163606000E+00 2.40797185885000E+00 2.44913386361000E+00 
2.49099947539000E+00 2.53358072138000E+00 2.57688983434000E+00 2.62093925615000E+00 
2.66574164135000E+00 2.71130986079000E+00 2.75765700535000E+00 2.80479638967000E+00 
2.85274155597000E+00 2.90150627797000E+00 2.95110456484000E+00 3.00155066521000E+00 
3.05285907126000E+00 3.10504452290000E+00 3.15812201201000E+00 3.21210678672000E+00 
3.26701435581000E+00 3.32286049316000E+00 3.37966124229000E+00 3.43743292096000E+00 
3.49619212585000E+00 3.55595573734000E+00 3.61674092436000E+00 3.67856514932000E+00 
3.74144617312000E+00 3.80540206027000E+00 3.87045118405000E+00 3.93661223182000E+00 
4.00390421036000E+00 4.07234645136000E+00 4.14195861696000E+00 4.21276070537000E+00 
4.28477305668000E+00 4.35801635862000E+00 4.43251165260000E+00 4.50828033966000E+00 
4.58534418668000E+00 4.66372533261000E+00 4.74344629485000E+00 4.82452997567000E+00 
4.90699966885000E+00 4.99087906635000E+00 5.07619226508000E+00 5.16296377388000E+00 
5.25121852052000E+00 5.34098185889000E+00 5.43227957625000E+00 5.52513790068000E+00 
5.61958350856000E+00 5.71564353231000E+00 5.81334556809000E+00 5.91271768383000E+00 
6.01378842719000E+00 6.11658683386000E+00 6.22114243583000E+00 6.32748526989000E+00 
6.43564588628000E+00 6.54565535747000E+00 6.65754528703000E+00 6.77134781878000E+00 
6.88709564599000E+00 7.00482202076000E+00 7.12456076361000E+00 7.24634627316000E+00 
7.37021353604000E+00 7.49619813690000E+00 7.62433626868000E+00 7.75466474300000E+00 
7.88722100070000E+00 8.02204312262000E+00 8.15916984056000E+00 8.29864054837000E+00 
8.44049531328000E+00 8.58477488742000E+00 8.73152071952000E+00 8.88077496683000E+00 
9.03258050718000E+00 9.18698095139000E+00 9.34402065571000E+00 9.50374473461000E+00 
9.66619907373000E+00 9.83143034304000E+00 9.99948601031000E+00 1.01704143547000E+01 
1.03442644805000E+01 1.05210863317000E+01 1.07009307056000E+01 1.08838492680000E+01 
1.10698945681000E+01 1.12591200528000E+01 1.14515800832000E+01 1.16473299492000E+01 
1.18464258859000E+01 1.20489250898000E+01 1.22548857350000E+01 1.24643669900000E+01 
1.26774290347000E+01 1.28941330777000E+01 1.31145413738000E+01 1.33387172422000E+01 
1.35667250842000E+01 1.37986304021000E+01 1.40344998177000E+01 1.42744010917000E+01 
1.45184031433000E+01 1.47665760694000E+01 1.50189911653000E+01 1.52757209450000E+01 
1.55368391619000E+01 1.58024208304000E+01 1.60725422469000E+01 1.63472810120000E+01 
1.66267160528000E+01 1.69109276457000E+01 1.71999974391000E+01 1.74940084772000E+01 
1.77930452237000E+01 1.80971935860000E+01 1.84065409401000E+01 1.87211761555000E+01 
1.90411896208000E+01 1.93666732696000E+01 1.96977206072000E+01 2.00344267370000E+01 
2.03768883882000E+01 2.07252039433000E+01 2.10794734668000E+01 2.14397987334000E+01 
2.18062832575000E+01 2.21790323230000E+01 2.25581530137000E+01 2.29437542434000E+01 
2.33359467880000E+01 2.37348433168000E+01 2.41405584251000E+01 2.45532086669000E+01 
2.49729125887000E+01 2.53997907633000E+01 2.58339658245000E+01 2.62755625025000E+01 
2.67247076594000E+01 2.71815303259000E+01 2.76461617383000E+01 2.81187353763000E+01 
2.85993870011000E+01 2.90882546946000E+01 2.95854788991000E+01 3.00912024574000E+01 
3.06055706542000E+01 3.11287312574000E+01 3.16608345610000E+01 3.22020334279000E+01 
3.27524833342000E+01 3.33123424135000E+01 3.38817715023000E+01 3.44609341867000E+01 
3.50499968489000E+01 3.56491287152000E+01 3.62585019046000E+01 3.68782914783000E+01 
3.75086754897000E+01 3.81498350360000E+01 3.88019543099000E+01 3.94652206527000E+01 
4.01398246080000E+01 4.08259599765000E+01 4.15238238714000E+01 4.22336167757000E+01 
4.29555425991000E+01 4.36898087369000E+01 4.44366261296000E+01 4.51962093234000E+01 
4.59687765318000E+01 4.67545496984000E+01 4.75537545606000E+01 4.83666207146000E+01 
4.91933816810000E+01 5.00342749723000E+01 5.08895421609000E+01 5.17594289485000E+01 
5.26441852366000E+01 5.35440651987000E+01 5.44593273529000E+01 5.53902346362000E+01 
5.63370544804000E+01 5.73000588884000E+01 5.82795245128000E+01 5.92757327351000E+01 
6.02889697466000E+01 6.13195266308000E+01 6.23676994466000E+01 6.34337893139000E+01 
6.45181024996000E+01 6.56209505059000E+01 6.67426501597000E+01 6.78835237037000E+01 
6.90438988887000E+01 7.02241090680000E+01 7.14244932932000E+01 7.26453964115000E+01 
7.38871691647000E+01 7.51501682901000E+01 7.64347566228000E+01 7.77413032003000E+01 
7.90701833681000E+01 8.04217788878000E+01 8.17964780466000E+01 8.31946757690000E+01 
8.46167737301000E+01 8.60631804711000E+01 8.75343115168000E+01 8.90305894945000E+01 
9.05524442560000E+01 9.21003130008000E+01 9.36746404015000E+01 9.52758787320000E+01 
9.69044879971000E+01 9.85609360646000E+01 1.00245698800000E+02 1.01959260203000E+02 
1.03702112547000E+02 1.05474756519000E+02 1.07277701367000E+02 1.09111465040000E+02 
1.10976574344000E+02 1.12873565088000E+02 1.14802982242000E+02 1.16765380089000E+02 
1.18761322389000E+02 1.20791382536000E+02 1.22856143729000E+02 1.24956199133000E+02 
1.27092152053000E+02 1.29264616107000E+02 1.31474215403000E+02 1.33721584714000E+02 
1.36007369668000E+02 1.38332226925000E+02 1.40696824372000E+02 1.43101841313000E+02 
1.45547968662000E+02 1.48035909144000E+02 1.50566377496000E+02 1.53140100673000E+02 
1.55757818056000E+02 1.58420281665000E+02 1.61128256373000E+02 1.63882520129000E+02 
1.66683864180000E+02 1.69533093299000E+02 1.72431026012000E+02 1.75378494841000E+02 
1.78376346536000E+02 1.81425442322000E+02 1.84526658146000E+02 1.87680884925000E+02 
1.90889028809000E+02 1.94152011436000E+02 1.97470770197000E+02 2.00846258507000E+02 
2.04279446079000E+02 
</PP_R>
    <PP_RAB>
1.07724996813000E-06 1.09566405291000E-06 1.11439290077000E-06 1.13344189215000E-06 
1.15281649945000E-06 1.17252228862000E-06 1.19256492075000E-06 1.21295015372000E-06 
1.23368384378000E-06 1.25477194735000E-06 1.27622052261000E-06 1.29803573133000E-06 
1.32022384060000E-06 1.34279122464000E-06 1.36574436660000E-06 1.38908986050000E-06 
1.41283441303000E-06 1.43698484555000E-06 1.46154809601000E-06 1.48653122096000E-06 
1.51194139756000E-06 1.53778592566000E-06 1.56407222991000E-06 1.59080786184000E-06 
1.61800050208000E-06 1.64565796256000E-06 1.67378818873000E-06 1.70239926185000E-06 
1.73149940134000E-06 1.76109696710000E-06 1.79120046195000E-06 1.82181853402000E-06 
1.85295997930000E-06 1.88463374413000E-06 1.91684892777000E-06 1.94961478501000E-06 
1.98294072885000E-06 2.01683633319000E-06 2.05131133558000E-06 2.08637564003000E-06 
2.12203931982000E-06 2.15831262044000E-06 2.19520596252000E-06 2.23272994479000E-06 
2.27089534717000E-06 2.30971313384000E-06 2.34919445639000E-06 2.38935065706000E-06 
2.43019327193000E-06 2.47173403430000E-06 2.51398487803000E-06 2.55695794097000E-06 
2.60066556845000E-06 2.64512031682000E-06 2.69033495707000E-06 2.73632247849000E-06 
2.78309609241000E-06 2.83066923598000E-06 2.87905557605000E-06 2.92826901307000E-06 
2.97832368512000E-06 3.02923397193000E-06 3.08101449904000E-06 3.13368014200000E-06 
3.18724603062000E-06 3.24172755335000E-06 3.29714036167000E-06 3.35350037462000E-06 
3.41082378333000E-06 3.46912705572000E-06 3.52842694117000E-06 3.58874047541000E-06 
3.65008498535000E-06 3.71247809406000E-06 3.77593772590000E-06 3.84048211157000E-06 
3.90612979344000E-06 3.97289963081000E-06 4.04081080537000E-06 4.10988282667000E-06 
4.18013553779000E-06 4.25158912095000E-06 4.32426410340000E-06 4.39818136324000E-06 
4.47336213549000E-06 4.54982801811000E-06 4.62760097828000E-06 4.70670335866000E-06 
4.78715788383000E-06 4.86898766684000E-06 4.95221621578000E-06 5.03686744060000E-06 
5.12296565998000E-06 5.21053560826000E-06 5.29960244259000E-06 5.39019175015000E-06 
5.48232955549000E-06 5.57604232803000E-06 5.67135698962000E-06 5.76830092234000E-06 
5.86690197629000E-06 5.96718847764000E-06 6.06918923678000E-06 6.17293355654000E-06 
6.27845124066000E-06 6.38577260233000E-06 6.49492847289000E-06 6.60595021073000E-06 
6.71886971023000E-06 6.83371941098000E-06 6.95053230708000E-06 7.06934195661000E-06 
7.19018249129000E-06 7.31308862626000E-06 7.43809567008000E-06 7.56523953485000E-06 
7.69455674655000E-06 7.82608445550000E-06 7.95986044708000E-06 8.09592315254000E-06 
8.23431166005000E-06 8.37506572596000E-06 8.51822578619000E-06 8.66383296785000E-06 
8.81192910107000E-06 8.96255673101000E-06 9.11575913006000E-06 9.27158031031000E-06 
9.43006503617000E-06 9.59125883724000E-06 9.75520802137000E-06 9.92195968800000E-06 
1.00915617416000E-05 1.02640629057000E-05 1.04395127364000E-05 1.06179616371000E-05 
1.07994608727000E-05 1.09840625845000E-05 1.11718198048000E-05 1.13627864729000E-05 
1.15570174496000E-05 1.17545685337000E-05 1.19554964780000E-05 1.21598590050000E-05 
1.23677148242000E-05 1.25791236486000E-05 1.27941462118000E-05 1.30128442856000E-05 
1.32352806978000E-05 1.34615193499000E-05 1.36916252362000E-05 1.39256644613000E-05 
1.41637042605000E-05 1.44058130177000E-05 1.46520602863000E-05 1.49025168083000E-05 
1.51572545350000E-05 1.54163466476000E-05 1.56798675783000E-05 1.59478930315000E-05 
1.62205000058000E-05 1.64977668158000E-05 1.67797731150000E-05 1.70665999184000E-05 
1.73583296256000E-05 1.76550460450000E-05 1.79568344175000E-05 1.82637814411000E-05 
1.85759752956000E-05 1.88935056684000E-05 1.92164637798000E-05 1.95449424094000E-05 
1.98790359227000E-05 2.02188402983000E-05 2.05644531555000E-05 2.09159737822000E-05 
2.12735031634000E-05 2.16371440104000E-05 2.20070007901000E-05 2.23831797554000E-05 
2.27657889750000E-05 2.31549383653000E-05 2.35507397213000E-05 2.39533067491000E-05 
2.43627550984000E-05 2.47792023959000E-05 2.52027682786000E-05 2.56335744290000E-05 
2.60717446093000E-05 2.65174046973000E-05 2.69706827226000E-05 2.74317089031000E-05 
2.79006156827000E-05 2.83775377693000E-05 2.88626121734000E-05 2.93559782475000E-05 
2.98577777260000E-05 3.03681547663000E-05 3.08872559898000E-05 3.14152305243000E-05 
3.19522300466000E-05 3.24984088263000E-05 3.30539237699000E-05 3.36189344663000E-05 
3.41936032320000E-05 3.47780951581000E-05 3.53725781581000E-05 3.59772230153000E-05 
3.65922034324000E-05 3.72176960815000E-05 3.78538806545000E-05 3.85009399149000E-05 
3.91590597503000E-05 3.98284292258000E-05 4.05092406383000E-05 4.12016895718000E-05 
4.19059749534000E-05 4.26222991107000E-05 4.33508678297000E-05 4.40918904142000E-05 
4.48455797456000E-05 4.56121523443000E-05 4.63918284316000E-05 4.71848319936000E-05 
4.79913908448000E-05 4.88117366938000E-05 4.96461052103000E-05 5.04947360921000E-05 
5.13578731344000E-05 5.22357642999000E-05 5.31286617897000E-05 5.40368221159000E-05 
5.49605061754000E-05 5.58999793249000E-05 5.68555114567000E-05 5.78273770767000E-05 
5.88158553831000E-05 5.98212303467000E-05 6.08437907922000E-05 6.18838304813000E-05 
6.29416481975000E-05 6.40175478312000E-05 6.51118384676000E-05 6.62248344753000E-05 
6.73568555964000E-05 6.85082270386000E-05 6.96792795689000E-05 7.08703496077000E-05 
7.20817793267000E-05 7.33139167459000E-05 7.45671158348000E-05 7.58417366131000E-05 
7.71381452548000E-05 7.84567141929000E-05 7.97978222267000E-05 8.11618546308000E-05 
8.25492032651000E-05 8.39602666881000E-05 8.53954502711000E-05 8.68551663144000E-05 
8.83398341663000E-05 8.98498803431000E-05 9.13857386519000E-05 9.29478503150000E-05 
9.45366640968000E-05 9.61526364329000E-05 9.77962315608000E-05 9.94679216536000E-05 
1.01168186955000E-04 1.02897515920000E-04 1.04656405349000E-04 1.06445360539000E-04 
1.08264895421000E-04 1.10115532712000E-04 1.11997804065000E-04 1.13912250220000E-04 
1.15859421160000E-04 1.17839876269000E-04 1.19854184495000E-04 1.21902924509000E-04 
1.23986684874000E-04 1.26106064215000E-04 1.28261671387000E-04 1.30454125656000E-04 
1.32684056870000E-04 1.34952105647000E-04 1.37258923552000E-04 1.39605173290000E-04 
1.41991528892000E-04 1.44418675913000E-04 1.46887311625000E-04 1.49398145220000E-04 
1.51951898010000E-04 1.54549303640000E-04 1.57191108295000E-04 1.59878070913000E-04 
1.62610963408000E-04 1.65390570885000E-04 1.68217691873000E-04 1.71093138549000E-04 
1.74017736972000E-04 1.76992327324000E-04 1.80017764147000E-04 1.83094916590000E-04 
1.86224668659000E-04 1.89407919472000E-04 1.92645583515000E-04 1.95938590907000E-04 
1.99287887664000E-04 2.02694435974000E-04 2.06159214474000E-04 2.09683218527000E-04 
2.13267460511000E-04 2.16912970110000E-04 2.20620794607000E-04 2.24391999189000E-04 
2.28227667251000E-04 2.32128900705000E-04 2.36096820300000E-04 2.40132565943000E-04 
2.44237297026000E-04 2.48412192758000E-04 2.52658452505000E-04 2.56977296137000E-04 
2.61369964374000E-04 2.65837719143000E-04 2.70381843945000E-04 2.75003644219000E-04 
2.79704447718000E-04 2.84485604893000E-04 2.89348489276000E-04 2.94294497882000E-04 
2.99325051602000E-04 3.04441595617000E-04 3.09645599811000E-04 3.14938559194000E-04 
3.20321994331000E-04 3.25797451779000E-04 3.31366504529000E-04 3.37030752465000E-04 
3.42791822813000E-04 3.48651370619000E-04 3.54611079218000E-04 3.60672660717000E-04 
3.66837856492000E-04 3.73108437685000E-04 3.79486205712000E-04 3.85972992782000E-04 
3.92570662425000E-04 3.99281110022000E-04 4.06106263356000E-04 4.13048083161000E-04 
4.20108563687000E-04 4.27289733274000E-04 4.34593654933000E-04 4.42022426939000E-04 
4.49578183435000E-04 4.57263095043000E-04 4.65079369491000E-04 4.73029252241000E-04 
4.81115027142000E-04 4.89339017080000E-04 4.97703584649000E-04 5.06211132827000E-04 
5.14864105667000E-04 5.23664989002000E-04 5.32616311155000E-04 5.41720643668000E-04 
5.50980602039000E-04 5.60398846475000E-04 5.69978082655000E-04 5.79721062509000E-04 
5.89630585006000E-04 5.99709496960000E-04 6.09960693848000E-04 6.20387120640000E-04 
6.30991772646000E-04 6.41777696379000E-04 6.52747990425000E-04 6.63905806338000E-04 
6.75254349541000E-04 6.86796880252000E-04 6.98536714417000E-04 7.10477224663000E-04 
7.22621841267000E-04 7.34974053142000E-04 7.47537408841000E-04 7.60315517572000E-04 
7.73312050238000E-04 7.86530740492000E-04 7.99975385808000E-04 8.13649848572000E-04 
8.27558057192000E-04 8.41704007229000E-04 8.56091762539000E-04 8.70725456446000E-04 
8.85609292928000E-04 9.00747547822000E-04 9.16144570057000E-04 9.31804782898000E-04 
9.47732685222000E-04 9.63932852807000E-04 9.80409939648000E-04 9.97168679293000E-04 
1.01421388620000E-03 1.03155045714000E-03 1.04918337256000E-03 1.06711769806000E-03 
1.08535858582000E-03 1.10391127610000E-03 1.12278109874000E-03 1.14197347465000E-03 
1.16149391744000E-03 1.18134803497000E-03 1.20154153092000E-03 1.22208020650000E-03 
1.24296996208000E-03 1.26421679888000E-03 1.28582682070000E-03 1.30780623568000E-03 
1.33016135809000E-03 1.35289861011000E-03 1.37602452373000E-03 1.39954574256000E-03 
1.42346902381000E-03 1.44780124015000E-03 1.47254938178000E-03 1.49772055836000E-03 
1.52332200106000E-03 1.54936106470000E-03 1.57584522979000E-03 1.60278210473000E-03 
1.63017942794000E-03 1.65804507016000E-03 1.68638703665000E-03 1.71521346949000E-03 
1.74453264998000E-03 1.77435300094000E-03 1.80468308918000E-03 1.83553162795000E-03 
1.86690747943000E-03 1.89881965731000E-03 1.93127732933000E-03 1.96428981996000E-03 
1.99786661305000E-03 2.03201735455000E-03 2.06675185531000E-03 2.10208009389000E-03 
2.13801221940000E-03 2.17455855446000E-03 2.21172959810000E-03 2.24953602886000E-03 
2.28798870779000E-03 2.32709868160000E-03 2.36687718583000E-03 2.40733564808000E-03 
2.44848569127000E-03 2.49033913703000E-03 2.53290800902000E-03 2.57620453648000E-03 
2.62024115764000E-03 2.66503052339000E-03 2.71058550083000E-03 2.75691917704000E-03 
2.80404486278000E-03 2.85197609634000E-03 2.90072664745000E-03 2.95031052120000E-03 
3.00074196206000E-03 3.05203545803000E-03 3.10420574472000E-03 3.15726780966000E-03 