<UPF version="2.0.1">
  <PP_INFO>
Generated using Vanderbilt code, version   7  3  6
Author: kfg    Generation date:   23    7 2013
Automatically converted from original format
1        The Pseudo was generated with a Scalar-Relativistic Calculation
1.80000000000E+00    Local Potential cutoff radius
nl pn  l   occ               Rcut            Rcut US             E pseu
4S  4  0  2.00      0.00000000000      1.80000000000     -4.00229788400
4P  4  1  6.00      0.00000000000      2.00000000000     -2.38352772300
4D  4  2  2.00      0.00000000000      2.20000000000     -0.26547161300
5S  5  0  2.00      0.00000000000      1.80000000000     -0.32814937700
5P  5  1  0.00      0.00000000000      2.00000000000     -0.10683291100
</PP_INFO>
  <PP_HEADER element="Zr" pseudo_type="US" relativistic="scalar" is_ultrasoft="T" is_paw="F" is_coulomb="F" has_so="F" has_wfc="F" has_gipaw="F" core_correction="T" functional="PBESOL" z_valence="12.0" total_psenergy="-98.5545027123" wfc_cutoff="0.0" rho_cutoff="0.0" l_max="2" mesh_size="887" number_of_wfc="5" number_of_proj="6"/>
  <PP_MESH>
    <PP_R>
0.00000000000000E+00 1.05927022700000E-06 2.13664720020000E-06 3.23244042915000E-06 
4.34696471405000E-06 5.48054023615000E-06 6.63349264977000E-06 7.80615317582000E-06 
8.99885869699000E-06 1.02119518545000E-05 1.14457811465000E-05 1.27007010283000E-05 
1.39770720141000E-05 1.52752607806000E-05 1.65956402723000E-05 1.79385898086000E-05 
1.93044951931000E-05 2.06937488238000E-05 2.21067498065000E-05 2.35439040689000E-05 
2.50056244778000E-05 2.64923309570000E-05 2.80044506087000E-05 2.95424178355000E-05 
3.11066744655000E-05 3.26976698796000E-05 3.43158611399000E-05 3.59617131214000E-05 
3.76356986456000E-05 3.93382986160000E-05 4.10700021568000E-05 4.28313067528000E-05 
4.46227183928000E-05 4.64447517147000E-05 4.82979301533000E-05 5.01827860910000E-05 
5.20998610105000E-05 5.40497056502000E-05 5.60328801628000E-05 5.80499542759000E-05 
6.01015074559000E-05 6.21881290744000E-05 6.43104185773000E-05 6.64689856574000E-05 
6.86644504292000E-05 7.08974436073000E-05 7.31686066873000E-05 7.54785921305000E-05 
7.78280635510000E-05 8.02176959065000E-05 8.26481756922000E-05 8.51202011377000E-05 
8.76344824082000E-05 9.01917418081000E-05 9.27927139885000E-05 9.54381461584000E-05 
9.81287982992000E-05 1.00865443383000E-04 1.03648867596000E-04 1.06479870560000E-04 
1.09359265570000E-04 1.12287879819000E-04 1.15266554641000E-04 1.18296145752000E-04 
1.21377523495000E-04 1.24511573090000E-04 1.27699194888000E-04 1.30941304633000E-04 
1.34238833720000E-04 1.37592729464000E-04 1.41003955374000E-04 1.44473491432000E-04 
1.48002334365000E-04 1.51591497944000E-04 1.55242013265000E-04 1.58954929051000E-04 
1.62731311951000E-04 1.66572246846000E-04 1.70478837162000E-04 1.74452205188000E-04 
1.78493492395000E-04 1.82603859766000E-04 1.86784488131000E-04 1.91036578504000E-04 
1.95361352427000E-04 1.99760052325000E-04 2.04233941859000E-04 2.08784306290000E-04 
2.13412452851000E-04 2.18119711118000E-04 2.22907433396000E-04 2.27776995104000E-04 
2.32729795174000E-04 2.37767256448000E-04 2.42890826093000E-04 2.48101976010000E-04 
2.53402203263000E-04 2.58793030503000E-04 2.64276006412000E-04 2.69852706141000E-04 
2.75524731769000E-04 2.81293712760000E-04 2.87161306429000E-04 2.93129198423000E-04 
2.99199103202000E-04 3.05372764532000E-04 3.11651955987000E-04 3.18038481455000E-04 
3.24534175664000E-04 3.31140904700000E-04 3.37860566548000E-04 3.44695091637000E-04 
3.51646443395000E-04 3.58716618809000E-04 3.65907649005000E-04 3.73221599826000E-04 
3.80660572429000E-04 3.88226703886000E-04 3.95922167802000E-04 4.03749174933000E-04 
4.11709973828000E-04 4.19806851469000E-04 4.28042133934000E-04 4.36418187059000E-04 
4.44937417123000E-04 4.53602271535000E-04 4.62415239540000E-04 4.71378852934000E-04 
4.80495686789000E-04 4.89768360196000E-04 4.99199537013000E-04 5.08791926635000E-04 
5.18548284771000E-04 5.28471414233000E-04 5.38564165745000E-04 5.48829438758000E-04 
5.59270182287000E-04 5.69889395755000E-04 5.80690129857000E-04 5.91675487435000E-04 
6.02848624369000E-04 6.14212750486000E-04 6.25771130479000E-04 6.37527084847000E-04 
6.49483990848000E-04 6.61645283470000E-04 6.74014456416000E-04 6.86595063112000E-04 
6.99390717722000E-04 7.12405096189000E-04 7.25641937293000E-04 7.39105043722000E-04 
7.52798283167000E-04 7.66725589429000E-04 7.80890963555000E-04 7.95298474981000E-04 
8.09952262709000E-04 8.24856536487000E-04 8.40015578024000E-04 8.55433742220000E-04 
8.71115458415000E-04 8.87065231663000E-04 9.03287644025000E-04 9.19787355887000E-04 
9.36569107295000E-04 9.53637719322000E-04 9.70998095451000E-04 9.88655222982000E-04 
1.00661417447000E-03 1.02488010916000E-03 1.04345827452000E-03 1.06235400768000E-03 
1.08157273703000E-03 1.10111998374000E-03 1.12100136336000E-03 1.14122258740000E-03 
1.16178946506000E-03 1.18270790478000E-03 1.20398391604000E-03 1.22562361101000E-03 
1.24763320637000E-03 1.27001902505000E-03 1.29278749805000E-03 1.31594516633000E-03 
1.33949868262000E-03 1.36345481340000E-03 1.38782044081000E-03 1.41260256461000E-03 
1.43780830423000E-03 1.46344490080000E-03 1.48951971920000E-03 1.51604025023000E-03 
1.54301411273000E-03 1.57044905576000E-03 1.59835296086000E-03 1.62673384427000E-03 
1.65559985927000E-03 1.68495929852000E-03 1.71482059640000E-03 1.74519233149000E-03 
1.77608322901000E-03 1.80750216332000E-03 1.83945816045000E-03 1.87196040076000E-03 
1.90501822150000E-03 1.93864111956000E-03 1.97283875413000E-03 2.00762094954000E-03 
2.04299769803000E-03 2.07897916267000E-03 2.11557568023000E-03 2.15279776419000E-03 
2.19065610772000E-03 2.22916158680000E-03 2.26832526330000E-03 2.30815838820000E-03 
2.34867240478000E-03 2.38987895193000E-03 2.43178986749000E-03 2.47441719166000E-03 
2.51777317045000E-03 2.56187025919000E-03 2.60672112611000E-03 2.65233865602000E-03 
2.69873595393000E-03 2.74592634889000E-03 2.79392339780000E-03 2.84274088928000E-03 
2.89239284764000E-03 2.94289353694000E-03 2.99425746503000E-03 3.04649938780000E-03 
3.09963431332000E-03 3.15367750625000E-03 3.20864449213000E-03 3.26455106192000E-03 
3.32141327650000E-03 3.37924747128000E-03 3.43807026090000E-03 3.49789854402000E-03 
3.55874950814000E-03 3.62064063457000E-03 3.68358970343000E-03 3.74761479877000E-03 
3.81273431376000E-03 3.87896695598000E-03 3.94633175278000E-03 4.01484805677000E-03 
4.08453555135000E-03 4.15541425639000E-03 4.22750453398000E-03 4.30082709425000E-03 
4.37540300136000E-03 4.45125367953000E-03 4.52840091918000E-03 4.60686688322000E-03 
4.68667411341000E-03 4.76784553682000E-03 4.85040447243000E-03 4.93437463782000E-03 
5.01978015600000E-03 5.10664556232000E-03 5.19499581153000E-03 5.28485628495000E-03 
5.37625279775000E-03 5.46921160639000E-03 5.56375941612000E-03 5.65992338871000E-03 
5.75773115020000E-03 5.85721079887000E-03 5.95839091330000E-03 6.06130056058000E-03 
6.16596930465000E-03 6.27242721483000E-03 6.38070487441000E-03 6.49083338947000E-03 
6.60284439780000E-03 6.71677007798000E-03 6.83264315868000E-03 6.95049692797000E-03 
7.07036524298000E-03 7.19228253953000E-03 7.31628384213000E-03 7.44240477393000E-03 
7.57068156705000E-03 7.70115107292000E-03 7.83385077291000E-03 7.96881878907000E-03 
8.10609389510000E-03 8.24571552749000E-03 8.38772379683000E-03 8.53215949934000E-03 
8.67906412861000E-03 8.82847988750000E-03 8.98044970025000E-03 9.13501722487000E-03 
9.29222686560000E-03 9.45212378574000E-03 9.61475392057000E-03 9.78016399059000E-03 
9.94840151491000E-03 1.01195148249000E-02 1.02935530781000E-02 1.04705662724000E-02 
1.06506052602000E-02 1.08337217632000E-02 1.10199683873000E-02 1.12093986375000E-02 
1.14020669334000E-02 1.15980286250000E-02 1.17973400082000E-02 1.20000583414000E-02 
1.22062418615000E-02 1.24159498011000E-02 1.26292424053000E-02 1.28461809489000E-02 
1.30668277542000E-02 1.32912462086000E-02 1.35195007834000E-02 1.37516570515000E-02 
1.39877817070000E-02 1.42279425840000E-02 1.44722086760000E-02 1.47206501559000E-02 
1.49733383962000E-02 1.52303459893000E-02 1.54917467685000E-02 1.57576158293000E-02 
1.60280295506000E-02 1.63030656170000E-02 1.65828030412000E-02 1.68673221862000E-02 
1.71567047890000E-02 1.74510339834000E-02 1.77503943247000E-02 1.80548718132000E-02 
1.83645539195000E-02 1.86795296091000E-02 1.89998893686000E-02 1.93257252311000E-02 
1.96571308029000E-02 1.99942012905000E-02 2.03370335276000E-02 2.06857260033000E-02 
2.10403788903000E-02 2.14010940734000E-02 2.17679751792000E-02 2.21411276054000E-02 
2.25206585516000E-02 2.29066770496000E-02 2.32992939951000E-02 2.36986221794000E-02 
2.41047763217000E-02 2.45178731022000E-02 2.49380311956000E-02 2.53653713052000E-02 
2.58000161977000E-02 2.62420907380000E-02 2.66917219255000E-02 2.71490389307000E-02 
2.76141731319000E-02 2.80872581531000E-02 2.85684299025000E-02 2.90578266114000E-02 
2.95555888741000E-02 3.00618596879000E-02 3.05767844948000E-02 3.11005112226000E-02 
3.16331903279000E-02 3.21749748390000E-02 3.27260204003000E-02 3.32864853164000E-02 
3.38565305980000E-02 3.44363200082000E-02 3.50260201092000E-02 3.56258003104000E-02 
3.62358329171000E-02 3.68562931798000E-02 3.74873593448000E-02 3.81292127051000E-02 
3.87820376529000E-02 3.94460217321000E-02 4.01213556924000E-02 4.08082335443000E-02 
4.15068526144000E-02 4.22174136026000E-02 4.29401206392000E-02 4.36751813439000E-02 
4.44228068855000E-02 4.51832120424000E-02 4.59566152642000E-02 4.67432387347000E-02 
4.75433084356000E-02 4.83570542114000E-02 4.91847098356000E-02 5.00265130776000E-02 
5.08827057713000E-02 5.17535338840000E-02 5.26392475881000E-02 5.35401013318000E-02 
5.44563539130000E-02 5.53882685533000E-02 5.63361129739000E-02 5.73001594719000E-02 
5.82806849994000E-02 5.92779712424000E-02 6.02923047019000E-02 6.13239767762000E-02 
6.23732838449000E-02 6.34405273534000E-02 6.45260139003000E-02 6.56300553248000E-02 
6.67529687966000E-02 6.78950769071000E-02 6.90567077617000E-02 7.02381950747000E-02 
7.14398782643000E-02 7.26621025510000E-02 7.39052190561000E-02 7.51695849030000E-02 
7.64555633194000E-02 7.77635237422000E-02 7.90938419230000E-02 8.04469000364000E-02 
8.18230867900000E-02 8.32227975355000E-02 8.46464343827000E-02 8.60944063150000E-02 
8.75671293067000E-02 8.90650264425000E-02 9.05885280394000E-02 9.21380717699000E-02 
9.37141027879000E-02 9.53170738566000E-02 9.69474454786000E-02 9.86056860281000E-02 
1.00292271886000E-01 1.02007687574000E-01 1.03752425900000E-01 1.05526988093000E-01 
1.07331883950000E-01 1.09167631982000E-01 1.11034759566000E-01 1.12933803089000E-01 
1.14865308111000E-01 1.16829829516000E-01 1.18827931672000E-01 1.20860188597000E-01 
1.22927184117000E-01 1.25029512041000E-01 1.27167776326000E-01 1.29342591256000E-01 
1.31554581611000E-01 1.33804382855000E-01 1.36092641311000E-01 1.38420014351000E-01 
1.40787170586000E-01 1.43194790053000E-01 1.45643564415000E-01 1.48134197156000E-01 
1.50667403789000E-01 1.53243912053000E-01 1.55864462131000E-01 1.58529806855000E-01 
1.61240711927000E-01 1.63997956138000E-01 1.66802331590000E-01 1.69654643927000E-01 
1.72555712563000E-01 1.75506370919000E-01 1.78507466661000E-01 1.81559861946000E-01 
1.84664433669000E-01 1.87822073712000E-01 1.91033689206000E-01 1.94300202784000E-01 
1.97622552853000E-01 2.01001693859000E-01 2.04438596565000E-01 2.07934248326000E-01 
2.11489653376000E-01 2.15105833113000E-01 2.18783826395000E-01 2.22524689840000E-01 
2.26329498125000E-01 2.30199344297000E-01 2.34135340089000E-01 2.38138616235000E-01 
2.42210322800000E-01 2.46351629507000E-01 2.50563726072000E-01 2.54847822549000E-01 
2.59205149677000E-01 2.63636959231000E-01 2.68144524384000E-01 2.72729140072000E-01 
2.77392123367000E-01 2.82134813854000E-01 2.86958574016000E-01 2.91864789626000E-01 
2.96854870144000E-01 3.01930249125000E-01 3.07092384626000E-01 3.12342759629000E-01 
3.17682882465000E-01 3.23114287249000E-01 3.28638534317000E-01 3.34257210679000E-01 
3.39971930472000E-01 3.45784335424000E-01 3.51696095327000E-01 3.57708908515000E-01 
3.63824502353000E-01 3.70044633732000E-01 3.76371089577000E-01 3.82805687355000E-01 
3.89350275602000E-01 3.96006734451000E-01 4.02776976174000E-01 4.09662945731000E-01 
4.16666621327000E-01 4.23790014984000E-01 4.31035173113000E-01 4.38404177109000E-01 
4.45899143944000E-01 4.53522226777000E-01 4.61275615572000E-01 4.69161537728000E-01 
4.77182258718000E-01 4.85340082739000E-01 4.93637353376000E-01 5.02076454275000E-01 
5.10659809827000E-01 5.19389885862000E-01 5.28269190364000E-01 5.37300274183000E-01 
5.46485731777000E-01 5.55828201949000E-01 5.65330368610000E-01 5.74994961549000E-01 
5.84824757217000E-01 5.94822579522000E-01 6.04991300647000E-01 6.15333841867000E-01 
6.25853174396000E-01 6.36552320233000E-01 6.47434353037000E-01 6.58502399004000E-01 
6.69759637771000E-01 6.81209303323000E-01 6.92854684928000E-01 7.04699128080000E-01 
7.16746035457000E-01 7.28998867903000E-01 7.41461145419000E-01 7.54136448177000E-01 
7.67028417546000E-01 7.80140757139000E-01 7.93477233878000E-01 8.07041679073000E-01 
8.20837989529000E-01 8.34870128658000E-01 8.49142127621000E-01 8.63658086489000E-01 
8.78422175415000E-01 8.93438635836000E-01 9.08711781690000E-01 9.24246000658000E-01 
9.40045755419000E-01 9.56115584938000E-01 9.72460105765000E-01 9.89084013364000E-01 
1.00599208346000E+00 1.02318917342000E+00 1.04068022364000E+00 1.05847025894000E+00 
1.07656439008000E+00 1.09496781513000E+00 1.11368582104000E+00 1.13272378515000E+00 
1.15208717668000E+00 1.17178155837000E+00 1.19181258803000E+00 1.21218602018000E+00 
1.23290770772000E+00 1.25398360359000E+00 1.27541976249000E+00 1.29722234261000E+00 
1.31939760740000E+00 1.34195192740000E+00 1.36489178202000E+00 1.38822376145000E+00 
1.41195456849000E+00 1.43609102057000E+00 1.46064005161000E+00 1.48560871407000E+00 
1.51100418097000E+00 1.53683374794000E+00 1.56310483531000E+00 1.58982499025000E+00 
1.61700188894000E+00 1.64464333879000E+00 1.67275728065000E+00 1.70135179111000E+00 
1.73043508482000E+00 1.76001551685000E+00 1.79010158508000E+00 1.82070193266000E+00 
1.85182535047000E+00 1.88348077967000E+00 1.91567731426000E+00 1.94842420367000E+00 
1.98173085546000E+00 2.01560683797000E+00 2.05006188313000E+00 2.08510588920000E+00 
2.12074892364000E+00 2.15700122602000E+00 2.19387321090000E+00 2.23137547092000E+00 
2.26951877972000E+00 2.30831409516000E+00 2.34777256237000E+00 2.38790551702000E+00 
2.42872448851000E+00 2.47024120335000E+00 2.51246758849000E+00 2.55541577475000E+00 
2.59909810031000E+00 2.64352711427000E+00 2.68871558022000E+00 2.73467647992000E+00 
2.78142301707000E+00 2.82896862102000E+00 2.87732695072000E+00 2.92651189858000E+00 
2.97653759448000E+00 3.02741840983000E+00 3.07916896171000E+00 3.13180411705000E+00 
3.18533899691000E+00 3.23978898083000E+00 3.29516971123000E+00 3.35149709794000E+00 
3.40878732270000E+00 3.46705684390000E+00 3.52632240125000E+00 3.58660102058000E+00 
3.64791001879000E+00 3.71026700876000E+00 3.77368990445000E+00 3.83819692602000E+00 
3.90380660510000E+00 3.97053779008000E+00 4.03840965154000E+00 4.10744168774000E+00 
4.17765373026000E+00 4.24906594966000E+00 4.32169886128000E+00 4.39557333117000E+00 
4.47071058201000E+00 4.54713219930000E+00 4.62486013747000E+00 4.70391672628000E+00 
4.78432467713000E+00 4.86610708969000E+00 4.94928745845000E+00 5.03388967953000E+00 
5.11993805751000E+00 5.20745731242000E+00 5.29647258685000E+00 5.38700945316000E+00 
5.47909392085000E+00 5.57275244400000E+00 5.66801192889000E+00 5.76489974173000E+00 
5.86344371651000E+00 5.96367216302000E+00 6.06561387493000E+00 6.16929813814000E+00 
6.27475473913000E+00 6.38201397353000E+00 6.49110665485000E+00 6.60206412331000E+00 
6.71491825484000E+00 6.82970147024000E+00 6.94644674452000E+00 7.06518761634000E+00 
7.18595819764000E+00 7.30879318347000E+00 7.43372786196000E+00 7.56079812442000E+00 
7.69004047568000E+00 7.82149204456000E+00 7.95519059455000E+00 8.09117453466000E+00 
8.22948293045000E+00 8.37015551523000E+00 8.51323270154000E+00 8.65875559266000E+00 
8.80676599451000E+00 8.95730642761000E+00 9.11042013932000E+00 9.26615111625000E+00 
9.42454409688000E+00 9.58564458447000E+00 9.74949886005000E+00 9.91615399580000E+00 
1.00856578685000E+01 1.02580591734000E+01 1.04334074379000E+01 1.06117530363000E+01 
1.07931472039000E+01 1.09776420515000E+01 1.11652905811000E+01 1.13561467004000E+01 
1.15502652388000E+01 1.17477019626000E+01 1.19485135916000E+01 1.21527578153000E+01 
1.23604933088000E+01 1.25717797507000E+01 1.27866778395000E+01 1.30052493112000E+01 
1.32275569571000E+01 1.34536646420000E+01 1.36836373222000E+01 1.39175410644000E+01 
1.41554430647000E+01 1.43974116676000E+01 1.46435163861000E+01 1.48938279213000E+01 
1.51484181829000E+01 1.54073603097000E+01 1.56707286907000E+01 1.59385989867000E+01 
1.62110481515000E+01 1.64881544545000E+01 1.67699975031000E+01 1.70566582653000E+01 
1.73482190931000E+01 1.76447637463000E+01 1.79463774166000E+01 1.82531467516000E+01 
1.85651598802000E+01 1.88825064379000E+01 1.92052775920000E+01 1.95335660686000E+01 
1.98674661785000E+01 2.02070738448000E+01 2.05524866301000E+01 2.09038037650000E+01 
2.12611261760000E+01 2.16245565150000E+01 2.19941991883000E+01 2.23701603873000E+01 
2.27525481183000E+01 2.31414722339000E+01 2.35370444645000E+01 2.39393784502000E+01 
2.43485897740000E+01 2.47647959942000E+01 2.51881166789000E+01 2.56186734399000E+01 
2.60565899679000E+01 2.65019920677000E+01 2.69550076949000E+01 2.74157669919000E+01 
2.78844023261000E+01 2.83610483273000E+01 2.88458419266000E+01 2.93389223960000E+01 
2.98404313878000E+01 3.03505129760000E+01 3.08693136970000E+01 3.13969825923000E+01 
3.19336712509000E+01 3.24795338531000E+01 3.30347272147000E+01 3.35994108320000E+01 
3.41737469277000E+01 3.47579004973000E+01 3.53520393570000E+01 3.59563341913000E+01 
3.65709586024000E+01 3.71960891601000E+01 3.78319054522000E+01 3.84785901364000E+01 
3.91363289928000E+01 3.98053109770000E+01 4.04857282746000E+01 4.11777763563000E+01 
4.18816540341000E+01 4.25975635185000E+01 4.33257104764000E+01 4.40663040903000E+01 
4.48195571185000E+01 4.55856859559000E+01 4.63649106966000E+01 4.71574551967000E+01 
4.79635471390000E+01 4.87834180980000E+01 4.96173036069000E+01 5.04654432247000E+01 
5.13280806057000E+01 5.22054635687000E+01 5.30978441691000E+01 5.40054787703000E+01 
5.49286281184000E+01 5.58675574162000E+01 5.68225364000000E+01 5.77938394167000E+01 
5.87817455030000E+01 5.97865384650000E+01 6.08085069604000E+01 6.18479445810000E+01 
6.29051499371000E+01 6.39804267432000E+01 6.50740839057000E+01 6.61864356111000E+01 
6.73178014164000E+01 6.84685063413000E+01 6.96388809609000E+01 7.08292615012000E+01 
7.20399899356000E+01 7.32714140828000E+01 7.45238877072000E+01 7.57977706203000E+01 
7.70934287839000E+01 7.84112344156000E+01 7.97515660955000E+01 8.11148088748000E+01 
8.25013543868000E+01 8.39116009593000E+01 8.53459537288000E+01 8.68048247571000E+01 
8.82886331496000E+01 8.97978051758000E+01 9.13327743915000E+01 9.28939817637000E+01 
9.44818757971000E+01 9.60969126630000E+01 9.77395563301000E+01 9.94102786982000E+01 
1.01109559733000E+02 1.02837887606000E+02 1.04595758832000E+02 1.06383678414000E+02 
1.08202159985000E+02 1.10051725961000E+02 1.11932907686000E+02 1.13846245587000E+02 
1.15792289329000E+02 1.17771597973000E+02 1.19784740136000E+02 1.21832294155000E+02 
1.23914848252000E+02 1.26033000705000E+02 1.28187360018000E+02 1.30378545096000E+02 
1.32607185426000E+02 1.34873921252000E+02 1.37179403763000E+02 1.39524295280000E+02 
1.41909269445000E+02 1.44335011415000E+02 1.46802218059000E+02 1.49311598156000E+02 
1.51863872605000E+02 1.54459774623000E+02 1.57100049963000E+02 1.59785457126000E+02 
1.62516767576000E+02 1.65294765966000E+02 1.68120250362000E+02 1.70994032470000E+02 
1.73916937873000E+02 1.76889806264000E+02 1.79913491692000E+02 1.82988862802000E+02 
1.86116803089000E+02 1.89298211150000E+02 1.92534000942000E+02 1.95825102044000E+02 
1.99172459927000E+02 2.02577036221000E+02 2.06039808995000E+02 
</PP_R>
    <PP_RAB>
1.05031871893000E-06 1.06827245159000E-06 1.08653307825000E-06 1.10510584484000E-06 
1.12399608696000E-06 1.14320923140000E-06 1.16275079774000E-06 1.18262639987000E-06 
1.20284174769000E-06 1.22340264866000E-06 1.24431500955000E-06 1.26558483805000E-06 
1.28721824459000E-06 1.30922144402000E-06 1.33160075744000E-06 1.35436261399000E-06 
1.37751355271000E-06 1.40106022441000E-06 1.42500939361000E-06 1.44936794043000E-06 
1.47414286262000E-06 1.49934127752000E-06 1.52497042416000E-06 1.55103766529000E-06 
1.57755048953000E-06 1.60451651350000E-06 1.63194348401000E-06 1.65983928031000E-06 
1.68821191631000E-06 1.71706954293000E-06 1.74642045040000E-06 1.77627307067000E-06 
1.80663597982000E-06 1.83751790053000E-06 1.86892770458000E-06 1.90087441538000E-06 
1.93336721063000E-06 1.96641542486000E-06 2.00002855219000E-06 2.03421624903000E-06 
2.06898833682000E-06 2.10435480493000E-06 2.14032581346000E-06 2.17691169617000E-06 
2.21412296349000E-06 2.25197030549000E-06 2.29046459498000E-06 2.32961689063000E-06 
2.36943844013000E-06 2.40994068344000E-06 2.45113525608000E-06 2.49303399245000E-06 
2.53564892924000E-06 2.57899230889000E-06 2.62307658314000E-06 2.66791441653000E-06 
2.71351869010000E-06 2.75990250508000E-06 2.80707918665000E-06 2.85506228775000E-06 
2.90386559299000E-06 2.95350312263000E-06 3.00398913656000E-06 3.05533813845000E-06 
3.10756487985000E-06 3.16068436451000E-06 3.21471185263000E-06 3.26966286525000E-06 
3.32555318875000E-06 3.38239887933000E-06 3.44021626765000E-06 3.49902196353000E-06 
3.55883286071000E-06 3.61966614171000E-06 3.68153928275000E-06 3.74447005878000E-06 
3.80847654860000E-06 3.87357714004000E-06 3.93979053523000E-06 4.00713575601000E-06 
4.07563214934000E-06 4.14529939293000E-06 4.21615750081000E-06 4.28822682916000E-06 
4.36152808210000E-06 4.43608231766000E-06 4.51191095382000E-06 4.58903577469000E-06 
4.66747893674000E-06 4.74726297517000E-06 4.82841081038000E-06 4.91094575459000E-06 
4.99489151848000E-06 5.08027221805000E-06 5.16711238152000E-06 5.25543695639000E-06 
5.34527131660000E-06 5.43664126983000E-06 5.52957306488000E-06 5.62409339928000E-06 
5.72022942688000E-06 5.81800876570000E-06 5.91745950586000E-06 6.01861021763000E-06 
6.12148995964000E-06 6.22612828727000E-06 6.33255526107000E-06 6.44080145546000E-06 
6.55089796747000E-06 6.66287642570000E-06 6.77676899940000E-06 6.89260840769000E-06 
7.01042792900000E-06 7.13026141060000E-06 7.25214327833000E-06 7.37610854648000E-06 
7.50219282789000E-06 7.63043234412000E-06 7.76086393590000E-06 7.89352507372000E-06 
8.02845386855000E-06 8.16568908281000E-06 8.30527014153000E-06 8.44723714366000E-06 
8.59163087355000E-06 8.73849281273000E-06 8.88786515181000E-06 9.03979080255000E-06 
9.19431341027000E-06 9.35147736631000E-06 9.51132782084000E-06 9.67391069580000E-06 
9.83927269810000E-06 1.00074613331000E-05 1.01785249180000E-05 1.03525125962000E-05 
1.05294743509000E-05 1.07094610199000E-05 1.08925243097000E-05 1.10787168110000E-05 
1.12680920133000E-05 1.14607043204000E-05 1.16566090660000E-05 1.18558625299000E-05 
1.20585219536000E-05 1.22646455574000E-05 1.24742925565000E-05 1.26875231785000E-05 
1.29043986803000E-05 1.31249813662000E-05 1.33493346052000E-05 1.35775228498000E-05 
1.38096116540000E-05 1.40456676923000E-05 1.42857587792000E-05 1.45299538881000E-05 
1.47783231716000E-05 1.50309379814000E-05 1.52878708888000E-05 1.55491957057000E-05 
1.58149875056000E-05 1.60853226454000E-05 1.63602787872000E-05 1.66399349204000E-05 
1.69243713849000E-05 1.72136698939000E-05 1.75079135571000E-05 1.78071869051000E-05 
1.81115759133000E-05 1.84211680267000E-05 1.87360521853000E-05 1.90563188491000E-05 
1.93820600246000E-05 1.97133692909000E-05 2.00503418266000E-05 2.03930744376000E-05 
2.07416655843000E-05 2.10962154101000E-05 2.14568257704000E-05 2.18236002615000E-05 
2.21966442506000E-05 2.25760649062000E-05 2.29619712283000E-05 2.33544740804000E-05 
2.37536862210000E-05 2.41597223360000E-05 2.45726990717000E-05 2.49927350683000E-05 
2.54199509941000E-05 2.58544695799000E-05 2.62964156545000E-05 2.67459161805000E-05 
2.72031002906000E-05 2.76680993251000E-05 2.81410468691000E-05 2.86220787913000E-05 
2.91113332829000E-05 2.96089508972000E-05 3.01150745901000E-05 3.06298497612000E-05 
3.11534242954000E-05 3.16859486056000E-05 3.22275756757000E-05 3.27784611046000E-05 
3.33387631512000E-05 3.39086427792000E-05 3.44882637041000E-05 3.50777924399000E-05 
3.56773983466000E-05 3.62872536795000E-05 3.69075336381000E-05 3.75384164170000E-05 
3.81800832565000E-05 3.88327184952000E-05 3.94965096224000E-05 4.01716473325000E-05 
4.08583255796000E-05 4.15567416329000E-05 4.22670961340000E-05 4.29895931539000E-05 
4.37244402520000E-05 4.44718485356000E-05 4.52320327208000E-05 4.60052111938000E-05 
4.67916060736000E-05 4.75914432765000E-05 4.84049525800000E-05 4.92323676898000E-05 
5.00739263061000E-05 5.09298701924000E-05 5.18004452449000E-05 5.26859015630000E-05 
5.35864935210000E-05 5.45024798417000E-05 5.54341236702000E-05 5.63816926498000E-05 
5.73454589986000E-05 5.83256995880000E-05 5.93226960224000E-05 6.03367347193000E-05 
6.13681069926000E-05 6.24171091354000E-05 6.34840425060000E-05 6.45692136134000E-05 
6.56729342065000E-05 6.67955213627000E-05 6.79372975796000E-05 6.90985908675000E-05 
7.02797348435000E-05 7.14810688273000E-05 7.27029379389000E-05 7.39456931978000E-05 
7.52096916234000E-05 7.64952963380000E-05 7.78028766711000E-05 7.91328082650000E-05 
8.04854731835000E-05 8.18612600209000E-05 8.32605640143000E-05 8.46837871566000E-05 
8.61313383122000E-05 8.76036333345000E-05 8.91010951856000E-05 9.06241540571000E-05 
9.21732474944000E-05 9.37488205221000E-05 9.53513257718000E-05 9.69812236122000E-05 
9.86389822816000E-05 1.00325078022000E-04 1.02039995216000E-04 1.03784226525000E-04 
1.05558273035000E-04 1.07362644394000E-04 1.09197858963000E-04 1.11064443964000E-04 
1.12962935631000E-04 1.14893879363000E-04 1.16857829883000E-04 1.18855351396000E-04 
1.20887017752000E-04 1.22953412609000E-04 1.25055129602000E-04 1.27192772514000E-04 
1.29366955449000E-04 1.31578303006000E-04 1.33827450463000E-04 1.36115043957000E-04 
1.38441740670000E-04 1.40808209015000E-04 1.43215128835000E-04 1.45663191589000E-04 
1.48153100560000E-04 1.50685571049000E-04 1.53261330588000E-04 1.55881119140000E-04 
1.58545689322000E-04 1.61255806613000E-04 1.64012249576000E-04 1.66815810085000E-04 
1.69667293548000E-04 1.72567519141000E-04 1.75517320043000E-04 1.78517543675000E-04 
1.81569051943000E-04 1.84672721485000E-04 1.87829443927000E-04 1.91040126134000E-04 
1.94305690472000E-04 1.97627075075000E-04 2.01005234112000E-04 2.04441138064000E-04 
2.07935773998000E-04 2.11490145857000E-04 2.15105274742000E-04 2.18782199210000E-04 
2.22521975570000E-04 2.26325678187000E-04 2.30194399793000E-04 2.34129251795000E-04 
2.38131364600000E-04 2.42201887939000E-04 2.46341991193000E-04 2.50552863734000E-04 
2.54835715265000E-04 2.59191776165000E-04 2.63622297847000E-04 2.68128553114000E-04 
2.72711836525000E-04 2.77373464770000E-04 2.82114777044000E-04 2.86937135435000E-04 
2.91841925312000E-04 2.96830555726000E-04 3.01904459816000E-04 3.07065095214000E-04 
3.12313944473000E-04 3.17652515484000E-04 3.23082341916000E-04 3.28604983653000E-04 
3.34222027243000E-04 3.39935086354000E-04 3.45745802237000E-04 3.51655844199000E-04 
3.57666910080000E-04 3.63780726743000E-04 3.69999050569000E-04 3.76323667963000E-04 
3.82756395864000E-04 3.89299082272000E-04 3.95953606772000E-04 4.02721881082000E-04 
4.09605849594000E-04 4.16607489942000E-04 4.23728813559000E-04 4.30971866265000E-04 
4.38338728849000E-04 4.45831517667000E-04 4.53452385253000E-04 4.61203520935000E-04 
4.69087151463000E-04 4.77105541653000E-04 4.85260995033000E-04 4.93555854506000E-04 
5.01992503026000E-04 5.10573364277000E-04 5.19300903377000E-04 5.28177627576000E-04 
5.37206086988000E-04 5.46388875313000E-04 5.55728630589000E-04 5.65228035946000E-04 
5.74889820381000E-04 5.84716759536000E-04 5.94711676502000E-04 6.04877442624000E-04 
6.15216978330000E-04 6.25733253970000E-04 6.36429290665000E-04 6.47308161179000E-04 
6.58372990802000E-04 6.69626958246000E-04 6.81073296557000E-04 6.92715294046000E-04 
7.04556295235000E-04 7.16599701814000E-04 7.28848973620000E-04 7.41307629632000E-04 
7.53979248982000E-04 7.66867471980000E-04 7.79976001163000E-04 7.93308602357000E-04 
8.06869105762000E-04 8.20661407048000E-04 8.34689468475000E-04 8.48957320035000E-04 
8.63469060605000E-04 8.78228859126000E-04 8.93240955805000E-04 9.08509663325000E-04 
9.24039368092000E-04 9.39834531487000E-04 9.55899691157000E-04 9.72239462311000E-04 
9.88858539049000E-04 1.00576169571000E-03 1.02295378824000E-03 1.04043975560000E-03 
1.05822462117000E-03 1.07631349420000E-03 1.09471157127000E-03 1.11342413778000E-03 
1.13245656951000E-03 1.15181433409000E-03 1.17150299265000E-03 1.19152820134000E-03 
1.21189571303000E-03 1.23261137891000E-03 1.25368115018000E-03 1.27511107979000E-03 
1.29690732413000E-03 1.31907614486000E-03 1.34162391063000E-03 1.36455709900000E-03 
1.38788229821000E-03 1.41160620915000E-03 1.43573564724000E-03 1.46027754440000E-03 
1.48523895104000E-03 1.51062703808000E-03 1.53644909905000E-03 1.56271255211000E-03 
1.58942494224000E-03 1.61659394341000E-03 1.64422736073000E-03 1.67233313275000E-03 
1.70091933373000E-03 1.72999417591000E-03 1.75956601195000E-03 1.78964333725000E-03 
1.82023479245000E-03 1.85134916588000E-03 1.88299539610000E-03 1.91518257446000E-03 
1.94791994772000E-03 1.98121692068000E-03 2.01508305893000E-03 2.04952809154000E-03 
2.08456191392000E-03 2.12019459059000E-03 2.15643635815000E-03 2.19329762814000E-03 
2.23078899010000E-03 2.26892121456000E-03 2.30770525619000E-03 2.34715225688000E-03 
2.38727354899000E-03 2.42808065860000E-03 2.46958530880000E-03 2.51179942306000E-03 
2.55473512870000E-03 2.59840476030000E-03 2.64282086331000E-03 2.68799619761000E-03 
2.73394374121000E-03 2.78067669393000E-03 2.82820848127000E-03 2.87655275817000E-03 
2.92572341301000E-03 2.97573457158000E-03 3.02660060110000E-03 3.07833611441000E-03 