Ar    ONCVPSP-3.3.0  r_core=   1.56397   1.56397   1.56397
18.0000      8.0000      180423    zatom,zion,pspd
8      11   2     4   400     0    pspcod,pspxc,lmax,lloc,mmax,r2well
3.99000000  7.00000000  0.00000000    rchrg fchrg qchrg
2     3     2     0    nproj
3     1           extension_switch
3     3     0    nprojso
