He    ONCVPSP-3.3.0  r_core=   1.26476   1.13601
2.0000      2.0000      180423    zatom,zion,pspd
8      11   1     4   600     0    pspcod,pspxc,lmax,lloc,mmax,r2well
5.99000000  0.00000000  0.00000000    rchrg fchrg qchrg
2     2     0     0    nproj
3     1           extension_switch
2     0     0    nprojso
