<UPF version="2.0.1">
    <PP_INFO>
        <PP_INPUTFILE>
        </PP_INPUTFILE>
    </PP_INFO>
    <PP_HEADER
        generated="Manually created by S.P.Huber just for testing purposes"
        author="sphuber"
        date="200411"
        element="Kr"
        z_valence="1.0"
        pseudo_type="NC"
    />
</UPF>
